 *******************************************************************************
 ** Site#: 6986         For non-commercial use only           Version 21.128L **
 *******************************************************************************
 ** Cite this program as: MOPAC2016, Version: 21.128L, James J. P. Stewart,   **
 ** Stewart Computational Chemistry, web: HTTP://OpenMOPAC.net. Days left: 357**
 *******************************************************************************
 **                                                                           **
 **                                MOPAC2016                                  **
 **                                                                           **
 *******************************************************************************

                              PM7 CALCULATION RESULTS

 *******************************************************************************
 *  CALCULATION DONE:                                Sun May 16 20:19:49 2021  *
 *  PM7        - The PM7 Hamiltonian to be used
 *  SINGLET    - SPIN STATE DEFINED AS A SINGLET
 *
 *
 *
 *                 CHARGE ON SYSTEM = 0
 *
 *
 *
 *  XYZ        - CARTESIAN COORDINATE SYSTEM TO BE USED
 *  T=         - A TIME OF 172800.0 SECONDS REQUESTED
 *  DUMP=N     - RESTART FILE WRITTEN EVERY 7200.0 SECONDS REQUESTED
 *  GNORM      - EXIT WHEN GRADIENT NORM DROPS BELOW 0.010
 *  AUX        - OUTPUT AUXILIARY INFORMATION
 *******************************************************************************
PM7 XYZ AUX GNORM=0.01 CHARGE=0 Singlet

 Mopac file generated by Gabedit
   ATOM   CHEMICAL          X               Y               Z
  NUMBER   SYMBOL      (ANGSTROMS)     (ANGSTROMS)     (ANGSTROMS)
 
     1       C          0.47416000  *  -1.47010000  *   0.58120000  *
     2       C          1.87416000  *  -1.47010000  *   0.58120000  *
     3       C          2.58216000  *  -0.26010000  *   0.58120000  *
     4       C          1.92616000  *   0.97690000  *   0.51620000  *
     5       C          0.52916000  *   0.98690000  *   0.56320000  *
     6       C         -0.14984000  *  -0.22610000  *   0.62220000  *
     7       C         -1.60684000  *   0.03090000  *   0.38020000  *
     8       C         -2.25084000  *  -1.12710000  *  -0.39180000  *
     9       C         -1.89284000  *  -2.42310000  *   0.37120000  *
    10       C         -0.36184000  *  -2.70610000  *   0.32820000  *
    11       C         -1.43884000  *   1.38190000  *  -0.35280000  *
    12       C         -2.27784000  *   0.15290000  *   1.75820000  *
    13       C         -2.02884000  *  -1.16410000  *   2.52420000  *
    14       N         -2.46184000  *  -2.32610000  *   1.72820000  *
    15       C         -2.34584000  *  -3.57310000  *   2.50120000  *
    16       H         -3.33284000  *  -0.99710000  *  -0.39080000  *
    17       C         -1.78184000  *  -1.18710000  *  -1.82680000  *
    18       C         -1.47384000  *  -0.07210000  *  -2.50380000  *
    19       C         -1.01984000  *   1.20490000  *  -1.83180000  *
    20       H         -2.34584000  *   1.98190000  *  -0.27780000  *
    21       O         -0.32484000  *   2.00990000  *   0.26320000  *
    22       H         -1.41084000  *   2.04990000  *  -2.40080000  *
    23       O          0.39116000  *   1.20390000  *  -1.88080000  *
    24       O          2.61616000  *   2.14990000  *   0.43920000  *
    25       H          2.41616000  *  -2.41510000  *   0.53720000  *
    26       H          3.67216000  *  -0.29010000  *   0.57520000  *
    27       H         -2.39184000  *  -3.25210000  *  -0.13080000  *
    28       H         -0.11384000  *  -3.06910000  *  -0.66880000  *
    29       H         -0.09984000  *  -3.48010000  *   1.04620000  *
    30       H         -3.34884000  *   0.31490000  *   1.63320000  *
    31       H         -1.84584000  *   0.98590000  *   2.31220000  *
    32       H         -2.59384000  *  -1.13610000  *   3.45520000  *
    33       H         -0.96984000  *  -1.25910000  *   2.76520000  *
    34       H         -3.01784000  *  -3.52710000  *   3.35920000  *
    35       H         -1.32484000  *  -3.70410000  *   2.86120000  *
    36       H         -2.62484000  *  -4.42310000  *   1.87920000  *
    37       H         -1.93984000  *  -2.10910000  *  -2.38580000  *
    38       H         -1.32284000  *  -0.15710000  *  -3.57980000  *
    39       C          3.55016000  *   2.09690000  *  -0.50980000  *
    40       O          3.26016000  *   2.35590000  *  -1.64880000  *
    41       C          4.99716000  *   2.03890000  *  -0.11380000  *
    42       H          5.48616000  *   1.22090000  *  -0.64280000  *
    43       H          5.07416000  *   1.87490000  *   0.96120000  *
    44       H          5.48216000  *   2.97990000  *  -0.37280000  *
    45       C          0.86416000  *   2.26290000  *  -2.53580000  *
    46       O          1.31916000  *   2.12490000  *  -3.64180000  *
    47       C          0.89116000  *   3.61290000  *  -1.87780000  *
    48       H          1.67316000  *   4.22190000  *  -2.33180000  *
    49       H          1.09316000  *   3.49990000  *  -0.81380000  *
    50       H         -0.07284000  *   4.10390000  *  -2.01280000  *
 


          CARTESIAN COORDINATES 

    NO.       ATOM           X           Y           Z

     1         C          0.4742     -1.4701      0.5812
     2         C          1.8742     -1.4701      0.5812
     3         C          2.5822     -0.2601      0.5812
     4         C          1.9262      0.9769      0.5162
     5         C          0.5292      0.9869      0.5632
     6         C         -0.1498     -0.2261      0.6222
     7         C         -1.6068      0.0309      0.3802
     8         C         -2.2508     -1.1271     -0.3918
     9         C         -1.8928     -2.4231      0.3712
    10         C         -0.3618     -2.7061      0.3282
    11         C         -1.4388      1.3819     -0.3528
    12         C         -2.2778      0.1529      1.7582
    13         C         -2.0288     -1.1641      2.5242
    14         N         -2.4618     -2.3261      1.7282
    15         C         -2.3458     -3.5731      2.5012
    16         H         -3.3328     -0.9971     -0.3908
    17         C         -1.7818     -1.1871     -1.8268
    18         C         -1.4738     -0.0721     -2.5038
    19         C         -1.0198      1.2049     -1.8318
    20         H         -2.3458      1.9819     -0.2778
    21         O         -0.3248      2.0099      0.2632
    22         H         -1.4108      2.0499     -2.4008
    23         O          0.3912      1.2039     -1.8808
    24         O          2.6162      2.1499      0.4392
    25         H          2.4162     -2.4151      0.5372
    26         H          3.6722     -0.2901      0.5752
    27         H         -2.3918     -3.2521     -0.1308
    28         H         -0.1138     -3.0691     -0.6688
    29         H         -0.0998     -3.4801      1.0462
    30         H         -3.3488      0.3149      1.6332
    31         H         -1.8458      0.9859      2.3122
    32         H         -2.5938     -1.1361      3.4552
    33         H         -0.9698     -1.2591      2.7652
    34         H         -3.0178     -3.5271      3.3592
    35         H         -1.3248     -3.7041      2.8612
    36         H         -2.6248     -4.4231      1.8792
    37         H         -1.9398     -2.1091     -2.3858
    38         H         -1.3228     -0.1571     -3.5798
    39         C          3.5502      2.0969     -0.5098
    40         O          3.2602      2.3559     -1.6488
    41         C          4.9972      2.0389     -0.1138
    42         H          5.4862      1.2209     -0.6428
    43         H          5.0742      1.8749      0.9612
    44         H          5.4822      2.9799     -0.3728
    45         C          0.8642      2.2629     -2.5358
    46         O          1.3192      2.1249     -3.6418
    47         C          0.8912      3.6129     -1.8778
    48         H          1.6732      4.2219     -2.3318
    49         H          1.0932      3.4999     -0.8138
    50         H         -0.0728      4.1039     -2.0128

 General Reference for PM7:
 "Optimization of Parameters for Semiempirical Methods VI: More Modifications to the 
 NDDO Approximations and Re-optimization of Parameters", J. J. P. Stewart, J. Mol. Mod., 1:32, 19 (2013)
 https://link.springer.com/article/10.1007/s00894-012-1667-x

           Empirical Formula: C21 H23 N O5  =    50 atoms



      MOLECULAR POINT GROUP   :   C1  


 SINGLET STATE CALCULATION


      RHF CALCULATION, NO. OF DOUBLY OCCUPIED LEVELS = 71


          Geometry optimization using L-BFGS
 CYCLE:     1 TIME:   0.047 TIME LEFT:  2.00D  GRAD.:   198.283 HEAT: -119.7492
 CYCLE:     2 TIME:   0.016 TIME LEFT:  2.00D  GRAD.:   194.486 HEAT: -120.1386
 CYCLE:     3 TIME:   0.031 TIME LEFT:  2.00D  GRAD.:    58.712 HEAT: -133.4080
 CYCLE:     4 TIME:   0.031 TIME LEFT:  2.00D  GRAD.:   194.736 HEAT: -120.1385
 CYCLE:     5 TIME:   0.031 TIME LEFT:  2.00D  GRAD.:    58.912 HEAT: -133.4063
 CYCLE:     6 TIME:   0.023 TIME LEFT:  2.00D  GRAD.:    62.812 HEAT: -134.9994
 CYCLE:     7 TIME:   0.023 TIME LEFT:  2.00D  GRAD.:    41.302 HEAT: -136.1383
 CYCLE:     8 TIME:   0.023 TIME LEFT:  2.00D  GRAD.:    28.929 HEAT: -137.3218
 CYCLE:     9 TIME:   0.023 TIME LEFT:  2.00D  GRAD.:    34.246 HEAT: -138.2940
 CYCLE:    10 TIME:   0.031 TIME LEFT:  2.00D  GRAD.:    56.055 HEAT: -138.7515
 CYCLE:    11 TIME:   0.023 TIME LEFT:  2.00D  GRAD.:    23.729 HEAT: -139.3703
 CYCLE:    12 TIME:   0.023 TIME LEFT:  2.00D  GRAD.:    20.132 HEAT: -139.6646
 CYCLE:    13 TIME:   0.023 TIME LEFT:  2.00D  GRAD.:    22.885 HEAT: -140.0217
 CYCLE:    14 TIME:   0.023 TIME LEFT:  2.00D  GRAD.:    43.914 HEAT: -140.4117
 CYCLE:    15 TIME:   0.023 TIME LEFT:  2.00D  GRAD.:    20.075 HEAT: -140.8362
 CYCLE:    16 TIME:   0.023 TIME LEFT:  2.00D  GRAD.:    15.010 HEAT: -141.0465
 CYCLE:    17 TIME:   0.023 TIME LEFT:  2.00D  GRAD.:    16.966 HEAT: -141.3011
 CYCLE:    18 TIME:   0.023 TIME LEFT:  2.00D  GRAD.:    28.274 HEAT: -141.5128
 CYCLE:    19 TIME:   0.023 TIME LEFT:  2.00D  GRAD.:    15.347 HEAT: -141.7452
 CYCLE:    20 TIME:   0.023 TIME LEFT:  2.00D  GRAD.:    10.920 HEAT: -141.9230
 CYCLE:    21 TIME:   0.023 TIME LEFT:  2.00D  GRAD.:    14.916 HEAT: -142.0538
 CYCLE:    22 TIME:   0.023 TIME LEFT:  2.00D  GRAD.:    18.548 HEAT: -142.1893
 CYCLE:    23 TIME:   0.023 TIME LEFT:  2.00D  GRAD.:    13.631 HEAT: -142.3439
 CYCLE:    24 TIME:   0.023 TIME LEFT:  2.00D  GRAD.:    13.019 HEAT: -142.5029
 CYCLE:    25 TIME:   0.023 TIME LEFT:  2.00D  GRAD.:    18.361 HEAT: -142.6800
 CYCLE:    26 TIME:   0.023 TIME LEFT:  2.00D  GRAD.:    17.765 HEAT: -142.8766
 CYCLE:    27 TIME:   0.023 TIME LEFT:  2.00D  GRAD.:    13.116 HEAT: -143.0477
 CYCLE:    28 TIME:   0.023 TIME LEFT:  2.00D  GRAD.:    16.578 HEAT: -143.2920
 CYCLE:    29 TIME:   0.023 TIME LEFT:  2.00D  GRAD.:    27.917 HEAT: -143.4538
 CYCLE:    30 TIME:   0.023 TIME LEFT:  2.00D  GRAD.:    18.404 HEAT: -143.6880
 CYCLE:    31 TIME:   0.023 TIME LEFT:  2.00D  GRAD.:    14.412 HEAT: -144.0275
 CYCLE:    32 TIME:   0.023 TIME LEFT:  2.00D  GRAD.:    15.364 HEAT: -144.2587
 CYCLE:    33 TIME:   0.031 TIME LEFT:  2.00D  GRAD.:    33.574 HEAT: -144.4189
 CYCLE:    34 TIME:   0.016 TIME LEFT:  2.00D  GRAD.:    13.984 HEAT: -144.7141
 CYCLE:    35 TIME:   0.023 TIME LEFT:  2.00D  GRAD.:    10.931 HEAT: -144.8249
 CYCLE:    36 TIME:   0.023 TIME LEFT:  2.00D  GRAD.:    12.415 HEAT: -144.9675
 CYCLE:    37 TIME:   0.023 TIME LEFT:  2.00D  GRAD.:    17.865 HEAT: -145.0910
 CYCLE:    38 TIME:   0.023 TIME LEFT:  2.00D  GRAD.:    12.973 HEAT: -145.1957
 CYCLE:    39 TIME:   0.023 TIME LEFT:  2.00D  GRAD.:    10.815 HEAT: -145.2666
 CYCLE:    40 TIME:   0.023 TIME LEFT:  2.00D  GRAD.:    12.089 HEAT: -145.4375
 CYCLE:    41 TIME:   0.023 TIME LEFT:  2.00D  GRAD.:    17.649 HEAT: -145.5941
 CYCLE:    42 TIME:   0.023 TIME LEFT:  2.00D  GRAD.:    17.670 HEAT: -145.7421
 CYCLE:    43 TIME:   0.023 TIME LEFT:  2.00D  GRAD.:    12.827 HEAT: -145.8949
 CYCLE:    44 TIME:   0.023 TIME LEFT:  2.00D  GRAD.:    16.842 HEAT: -146.0872
 CYCLE:    45 TIME:   0.023 TIME LEFT:  2.00D  GRAD.:    15.896 HEAT: -146.2147
 CYCLE:    46 TIME:   0.023 TIME LEFT:  2.00D  GRAD.:    13.102 HEAT: -146.3578
 CYCLE:    47 TIME:   0.023 TIME LEFT:  2.00D  GRAD.:    17.637 HEAT: -146.5357
 CYCLE:    48 TIME:   0.023 TIME LEFT:  2.00D  GRAD.:    16.551 HEAT: -146.6512
 CYCLE:    49 TIME:   0.023 TIME LEFT:  2.00D  GRAD.:    12.176 HEAT: -146.7581
 CYCLE:    50 TIME:   0.023 TIME LEFT:  2.00D  GRAD.:     9.947 HEAT: -146.9580
 CYCLE:    51 TIME:   0.023 TIME LEFT:  2.00D  GRAD.:    19.024 HEAT: -147.0721
 CYCLE:    52 TIME:   0.016 TIME LEFT:  2.00D  GRAD.:    13.496 HEAT: -147.2098
 CYCLE:    53 TIME:   0.031 TIME LEFT:  2.00D  GRAD.:    12.574 HEAT: -147.3548
 CYCLE:    54 TIME:   0.023 TIME LEFT:  2.00D  GRAD.:    16.484 HEAT: -147.4403
 CYCLE:    55 TIME:   0.023 TIME LEFT:  2.00D  GRAD.:    11.574 HEAT: -147.5381
 CYCLE:    56 TIME:   0.023 TIME LEFT:  2.00D  GRAD.:    11.373 HEAT: -147.6993
 CYCLE:    57 TIME:   0.023 TIME LEFT:  2.00D  GRAD.:    18.274 HEAT: -147.8163
 CYCLE:    58 TIME:   0.023 TIME LEFT:  2.00D  GRAD.:    14.780 HEAT: -147.9425
 CYCLE:    59 TIME:   0.023 TIME LEFT:  2.00D  GRAD.:    29.357 HEAT: -148.0255
 CYCLE:    60 TIME:   0.023 TIME LEFT:  2.00D  GRAD.:    12.711 HEAT: -148.2227
 CYCLE:    61 TIME:   0.023 TIME LEFT:  2.00D  GRAD.:    10.844 HEAT: -148.3433
 CYCLE:    62 TIME:   0.023 TIME LEFT:  2.00D  GRAD.:    19.537 HEAT: -148.5396
 CYCLE:    63 TIME:   0.023 TIME LEFT:  2.00D  GRAD.:    25.666 HEAT: -148.7764
 CYCLE:    64 TIME:   0.023 TIME LEFT:  2.00D  GRAD.:    15.756 HEAT: -149.0119
 CYCLE:    65 TIME:   0.023 TIME LEFT:  2.00D  GRAD.:    13.448 HEAT: -149.1814
 CYCLE:    66 TIME:   0.023 TIME LEFT:  2.00D  GRAD.:    13.549 HEAT: -149.3572
 CYCLE:    67 TIME:   0.031 TIME LEFT:  2.00D  GRAD.:    21.868 HEAT: -149.4613
 CYCLE:    68 TIME:   0.016 TIME LEFT:  2.00D  GRAD.:    15.639 HEAT: -149.6094
 CYCLE:    69 TIME:   0.023 TIME LEFT:  2.00D  GRAD.:    16.469 HEAT: -149.7178
 CYCLE:    70 TIME:   0.023 TIME LEFT:  2.00D  GRAD.:    11.278 HEAT: -149.8153
 CYCLE:    71 TIME:   0.023 TIME LEFT:  2.00D  GRAD.:    10.399 HEAT: -149.9420
 CYCLE:    72 TIME:   0.023 TIME LEFT:  2.00D  GRAD.:    15.730 HEAT: -150.0832
 CYCLE:    73 TIME:   0.023 TIME LEFT:  2.00D  GRAD.:    18.333 HEAT: -150.1757
 CYCLE:    74 TIME:   0.031 TIME LEFT:  2.00D  GRAD.:    10.769 HEAT: -150.2896
 CYCLE:    75 TIME:   0.016 TIME LEFT:  2.00D  GRAD.:     9.330 HEAT: -150.3828
 CYCLE:    76 TIME:   0.023 TIME LEFT:  2.00D  GRAD.:    13.314 HEAT: -150.4810
 CYCLE:    77 TIME:   0.023 TIME LEFT:  2.00D  GRAD.:    20.800 HEAT: -150.5961
 CYCLE:    78 TIME:   0.023 TIME LEFT:  2.00D  GRAD.:    11.991 HEAT: -150.7220
 CYCLE:    79 TIME:   0.023 TIME LEFT:  2.00D  GRAD.:    11.402 HEAT: -150.8264
 CYCLE:    80 TIME:   0.023 TIME LEFT:  2.00D  GRAD.:    12.543 HEAT: -150.9019
 CYCLE:    81 TIME:   0.023 TIME LEFT:  2.00D  GRAD.:    14.848 HEAT: -151.0040
 CYCLE:    82 TIME:   0.016 TIME LEFT:  2.00D  GRAD.:    12.692 HEAT: -151.1296
 CYCLE:    83 TIME:   0.031 TIME LEFT:  2.00D  GRAD.:    12.244 HEAT: -151.2825
 CYCLE:    84 TIME:   0.023 TIME LEFT:  2.00D  GRAD.:    15.765 HEAT: -151.4236
 CYCLE:    85 TIME:   0.023 TIME LEFT:  2.00D  GRAD.:    11.988 HEAT: -151.5550
 CYCLE:    86 TIME:   0.023 TIME LEFT:  2.00D  GRAD.:    13.119 HEAT: -151.7020
 CYCLE:    87 TIME:   0.023 TIME LEFT:  2.00D  GRAD.:    11.601 HEAT: -151.8291
 CYCLE:    88 TIME:   0.023 TIME LEFT:  2.00D  GRAD.:    11.207 HEAT: -151.9913
 CYCLE:    89 TIME:   0.023 TIME LEFT:  2.00D  GRAD.:    24.806 HEAT: -152.0568
 CYCLE:    90 TIME:   0.023 TIME LEFT:  2.00D  GRAD.:    10.774 HEAT: -152.2046
 CYCLE:    91 TIME:   0.023 TIME LEFT:  2.00D  GRAD.:     8.108 HEAT: -152.2596
 CYCLE:    92 TIME:   0.016 TIME LEFT:  2.00D  GRAD.:     8.788 HEAT: -152.3385
 CYCLE:    93 TIME:   0.023 TIME LEFT:  2.00D  GRAD.:    20.209 HEAT: -152.4073
 CYCLE:    94 TIME:   0.023 TIME LEFT:  2.00D  GRAD.:    10.735 HEAT: -152.4898
 CYCLE:    95 TIME:   0.023 TIME LEFT:  2.00D  GRAD.:     6.738 HEAT: -152.5291
 CYCLE:    96 TIME:   0.023 TIME LEFT:  2.00D  GRAD.:     7.691 HEAT: -152.5778
 CYCLE:    97 TIME:   0.023 TIME LEFT:  2.00D  GRAD.:     9.187 HEAT: -152.6515
 CYCLE:    98 TIME:   0.023 TIME LEFT:  2.00D  GRAD.:    22.385 HEAT: -152.7034
 CYCLE:    99 TIME:   0.023 TIME LEFT:  2.00D  GRAD.:     8.454 HEAT: -152.8045
 CYCLE:   100 TIME:   0.023 TIME LEFT:  2.00D  GRAD.:     7.007 HEAT: -152.8520
 CYCLE:   101 TIME:   0.023 TIME LEFT:  2.00D  GRAD.:     8.966 HEAT: -152.9167
 CYCLE:   102 TIME:   0.023 TIME LEFT:  2.00D  GRAD.:    15.342 HEAT: -152.9765
 CYCLE:   103 TIME:   0.023 TIME LEFT:  2.00D  GRAD.:     7.913 HEAT: -153.0370
 CYCLE:   104 TIME:   0.023 TIME LEFT:  2.00D  GRAD.:     6.198 HEAT: -153.0772
 CYCLE:   105 TIME:   0.023 TIME LEFT:  2.00D  GRAD.:     6.687 HEAT: -153.1149
 CYCLE:   106 TIME:   0.023 TIME LEFT:  2.00D  GRAD.:    12.742 HEAT: -153.1503
 CYCLE:   107 TIME:   0.023 TIME LEFT:  2.00D  GRAD.:     7.130 HEAT: -153.1914
 CYCLE:   108 TIME:   0.023 TIME LEFT:  2.00D  GRAD.:     5.954 HEAT: -153.2187
 CYCLE:   109 TIME:   0.016 TIME LEFT:  2.00D  GRAD.:     6.321 HEAT: -153.2500
 CYCLE:   110 TIME:   0.031 TIME LEFT:  2.00D  GRAD.:     7.859 HEAT: -153.2823
 CYCLE:   111 TIME:   0.016 TIME LEFT:  2.00D  GRAD.:     5.230 HEAT: -153.3100
 CYCLE:   112 TIME:   0.023 TIME LEFT:  2.00D  GRAD.:     5.830 HEAT: -153.3363
 CYCLE:   113 TIME:   0.023 TIME LEFT:  2.00D  GRAD.:     9.226 HEAT: -153.3543
 CYCLE:   114 TIME:   0.031 TIME LEFT:  2.00D  GRAD.:     4.760 HEAT: -153.3750
 CYCLE:   115 TIME:   0.016 TIME LEFT:  2.00D  GRAD.:     3.605 HEAT: -153.3921
 CYCLE:   116 TIME:   0.023 TIME LEFT:  2.00D  GRAD.:     4.073 HEAT: -153.4046
 CYCLE:   117 TIME:   0.023 TIME LEFT:  2.00D  GRAD.:     8.397 HEAT: -153.4247
 CYCLE:   118 TIME:   0.023 TIME LEFT:  2.00D  GRAD.:     7.645 HEAT: -153.4416
 CYCLE:   119 TIME:   0.023 TIME LEFT:  2.00D  GRAD.:     4.512 HEAT: -153.4569
 CYCLE:   120 TIME:   0.023 TIME LEFT:  2.00D  GRAD.:     4.203 HEAT: -153.4726
 CYCLE:   121 TIME:   0.031 TIME LEFT:  2.00D  GRAD.:     4.683 HEAT: -153.4900
 CYCLE:   122 TIME:   0.023 TIME LEFT:  2.00D  GRAD.:     4.630 HEAT: -153.5088
 CYCLE:   123 TIME:   0.023 TIME LEFT:  2.00D  GRAD.:    14.139 HEAT: -153.5054
 CYCLE:   124 TIME:   0.023 TIME LEFT:  2.00D  GRAD.:    24.471 HEAT: -153.4511
 CYCLE:   125 TIME:   0.031 TIME LEFT:  2.00D  GRAD.:     4.525 HEAT: -153.5465
 CYCLE:   126 TIME:   0.023 TIME LEFT:  2.00D  GRAD.:     3.489 HEAT: -153.5510
 CYCLE:   127 TIME:   0.023 TIME LEFT:  2.00D  GRAD.:     4.285 HEAT: -153.5672
 CYCLE:   128 TIME:   0.023 TIME LEFT:  2.00D  GRAD.:     4.400 HEAT: -153.5844
 CYCLE:   129 TIME:   0.023 TIME LEFT:  2.00D  GRAD.:     6.606 HEAT: -153.6009
 CYCLE:   130 TIME:   0.031 TIME LEFT:  2.00D  GRAD.:     4.984 HEAT: -153.6153
 CYCLE:   131 TIME:   0.023 TIME LEFT:  2.00D  GRAD.:     5.467 HEAT: -153.6369
 CYCLE:   132 TIME:   0.023 TIME LEFT:  2.00D  GRAD.:     5.184 HEAT: -153.6625
 CYCLE:   133 TIME:   0.023 TIME LEFT:  2.00D  GRAD.:     6.774 HEAT: -153.6897
 CYCLE:   134 TIME:   0.031 TIME LEFT:  2.00D  GRAD.:     7.700 HEAT: -153.7139
 CYCLE:   135 TIME:   0.016 TIME LEFT:  2.00D  GRAD.:     4.635 HEAT: -153.7365
 CYCLE:   136 TIME:   0.031 TIME LEFT:  2.00D  GRAD.:     4.747 HEAT: -153.7543
 CYCLE:   137 TIME:   0.023 TIME LEFT:  2.00D  GRAD.:     4.990 HEAT: -153.7662
 CYCLE:   138 TIME:   0.023 TIME LEFT:  2.00D  GRAD.:     4.219 HEAT: -153.7827
 CYCLE:   139 TIME:   0.023 TIME LEFT:  2.00D  GRAD.:     5.804 HEAT: -153.7960
 CYCLE:   140 TIME:   0.023 TIME LEFT:  2.00D  GRAD.:    10.586 HEAT: -153.8025
 CYCLE:   141 TIME:   0.023 TIME LEFT:  2.00D  GRAD.:     4.769 HEAT: -153.8217
 CYCLE:   142 TIME:   0.023 TIME LEFT:  2.00D  GRAD.:     3.157 HEAT: -153.8238
 CYCLE:   143 TIME:   0.023 TIME LEFT:  2.00D  GRAD.:     2.542 HEAT: -153.8369
 CYCLE:   144 TIME:   0.023 TIME LEFT:  2.00D  GRAD.:     4.991 HEAT: -153.8490
 CYCLE:   145 TIME:   0.023 TIME LEFT:  2.00D  GRAD.:    12.589 HEAT: -153.8385
 CYCLE:   146 TIME:   0.023 TIME LEFT:  2.00D  GRAD.:     2.952 HEAT: -153.8703
 CYCLE:   147 TIME:   0.031 TIME LEFT:  2.00D  GRAD.:     6.012 HEAT: -153.8782
 CYCLE:   148 TIME:   0.023 TIME LEFT:  2.00D  GRAD.:     2.821 HEAT: -153.8955
 CYCLE:   149 TIME:   0.023 TIME LEFT:  2.00D  GRAD.:     4.301 HEAT: -153.9049
 CYCLE:   150 TIME:   0.023 TIME LEFT:  2.00D  GRAD.:     3.470 HEAT: -153.9174
 CYCLE:   151 TIME:   0.023 TIME LEFT:  2.00D  GRAD.:     4.458 HEAT: -153.9366
 CYCLE:   152 TIME:   0.023 TIME LEFT:  2.00D  GRAD.:     5.196 HEAT: -153.9570
 CYCLE:   153 TIME:   0.023 TIME LEFT:  2.00D  GRAD.:     5.392 HEAT: -153.9789
 CYCLE:   154 TIME:   0.023 TIME LEFT:  2.00D  GRAD.:     6.641 HEAT: -153.9882
 CYCLE:   155 TIME:   0.031 TIME LEFT:  2.00D  GRAD.:     4.427 HEAT: -154.0013
 CYCLE:   156 TIME:   0.023 TIME LEFT:  2.00D  GRAD.:     3.485 HEAT: -154.0152
 CYCLE:   157 TIME:   0.023 TIME LEFT:  2.00D  GRAD.:     4.072 HEAT: -154.0261
 CYCLE:   158 TIME:   0.023 TIME LEFT:  2.00D  GRAD.:     4.289 HEAT: -154.0351
 CYCLE:   159 TIME:   0.023 TIME LEFT:  2.00D  GRAD.:     8.719 HEAT: -154.0411
 CYCLE:   160 TIME:   0.023 TIME LEFT:  2.00D  GRAD.:     3.872 HEAT: -154.0599
 CYCLE:   161 TIME:   0.016 TIME LEFT:  2.00D  GRAD.:     3.976 HEAT: -154.0723
 CYCLE:   162 TIME:   0.023 TIME LEFT:  2.00D  GRAD.:     3.524 HEAT: -154.0808
 CYCLE:   163 TIME:   0.023 TIME LEFT:  2.00D  GRAD.:     6.284 HEAT: -154.0888
 CYCLE:   164 TIME:   0.023 TIME LEFT:  2.00D  GRAD.:     4.535 HEAT: -154.0994
 CYCLE:   165 TIME:   0.023 TIME LEFT:  2.00D  GRAD.:     3.270 HEAT: -154.1073
 CYCLE:   166 TIME:   0.023 TIME LEFT:  2.00D  GRAD.:     4.802 HEAT: -154.1084
 CYCLE:   167 TIME:   0.031 TIME LEFT:  2.00D  GRAD.:    22.727 HEAT: -154.0529
 CYCLE:   168 TIME:   0.016 TIME LEFT:  2.00D  GRAD.:     3.307 HEAT: -154.1249
 CYCLE:   169 TIME:   0.023 TIME LEFT:  2.00D  GRAD.:     2.466 HEAT: -154.1297
 CYCLE:   170 TIME:   0.031 TIME LEFT:  2.00D  GRAD.:     6.428 HEAT: -154.1345
 CYCLE:   171 TIME:   0.023 TIME LEFT:  2.00D  GRAD.:     9.685 HEAT: -154.1270
 CYCLE:   172 TIME:   0.023 TIME LEFT:  2.00D  GRAD.:    29.587 HEAT: -154.0056
 CYCLE:   173 TIME:   0.023 TIME LEFT:  2.00D  GRAD.:     8.025 HEAT: -154.1434
 CYCLE:   174 TIME:   0.023 TIME LEFT:  2.00D  GRAD.:     5.910 HEAT: -154.1371
 CYCLE:   175 TIME:   0.023 TIME LEFT:  2.00D  GRAD.:     8.870 HEAT: -154.1470
 CYCLE:   176 TIME:   0.023 TIME LEFT:  2.00D  GRAD.:     2.032 HEAT: -154.1554
 CYCLE:   177 TIME:   0.023 TIME LEFT:  2.00D  GRAD.:     1.718 HEAT: -154.1580
 CYCLE:   178 TIME:   0.023 TIME LEFT:  2.00D  GRAD.:    12.575 HEAT: -154.1440
 CYCLE:   179 TIME:   0.031 TIME LEFT:  2.00D  GRAD.:     4.309 HEAT: -154.1753
 CYCLE:   180 TIME:   0.023 TIME LEFT:  2.00D  GRAD.:     3.018 HEAT: -154.1824
 CYCLE:   181 TIME:   0.023 TIME LEFT:  2.00D  GRAD.:     5.791 HEAT: -154.2103
 CYCLE:   182 TIME:   0.023 TIME LEFT:  2.00D  GRAD.:     9.248 HEAT: -154.2328
 CYCLE:   183 TIME:   0.023 TIME LEFT:  2.00D  GRAD.:    12.392 HEAT: -154.2801
 CYCLE:   184 TIME:   0.023 TIME LEFT:  2.00D  GRAD.:    18.744 HEAT: -154.3008
 CYCLE:   185 TIME:   0.023 TIME LEFT:  2.00D  GRAD.:    18.892 HEAT: -154.3191
 CYCLE:   186 TIME:   0.023 TIME LEFT:  2.00D  GRAD.:    16.868 HEAT: -154.3417
 CYCLE:   187 TIME:   0.023 TIME LEFT:  2.00D  GRAD.:     5.979 HEAT: -154.4064
 CYCLE:   188 TIME:   0.023 TIME LEFT:  2.00D  GRAD.:     9.673 HEAT: -154.4434
 CYCLE:   189 TIME:   0.023 TIME LEFT:  2.00D  GRAD.:    22.555 HEAT: -154.4593
 CYCLE:   190 TIME:   0.031 TIME LEFT:  2.00D  GRAD.:    11.193 HEAT: -154.5244
 CYCLE:   191 TIME:   0.023 TIME LEFT:  2.00D  GRAD.:     7.966 HEAT: -154.5785
 CYCLE:   192 TIME:   0.023 TIME LEFT:  2.00D  GRAD.:    24.909 HEAT: -154.6147
 CYCLE:   193 TIME:   0.031 TIME LEFT:  2.00D  GRAD.:     7.480 HEAT: -154.6723
 CYCLE:   194 TIME:   0.023 TIME LEFT:  2.00D  GRAD.:     6.500 HEAT: -154.7281
 CYCLE:   195 TIME:   0.023 TIME LEFT:  2.00D  GRAD.:    26.949 HEAT: -154.7598
 CYCLE:   196 TIME:   0.031 TIME LEFT:  2.00D  GRAD.:    22.546 HEAT: -154.6713
 CYCLE:   197 TIME:   0.023 TIME LEFT:  2.00D  GRAD.:     8.783 HEAT: -154.8665
 CYCLE:   198 TIME:   0.023 TIME LEFT:  2.00D  GRAD.:    18.003 HEAT: -154.9387
 CYCLE:   199 TIME:   0.023 TIME LEFT:  2.00D  GRAD.:     9.157 HEAT: -155.0153
 CYCLE:   200 TIME:   0.023 TIME LEFT:  2.00D  GRAD.:     9.748 HEAT: -155.1535
 CYCLE:   201 TIME:   0.031 TIME LEFT:  2.00D  GRAD.:    34.317 HEAT: -155.1420
 CYCLE:   202 TIME:   0.023 TIME LEFT:  2.00D  GRAD.:    40.390 HEAT: -155.0566
 CYCLE:   203 TIME:   0.031 TIME LEFT:  2.00D  GRAD.:    13.451 HEAT: -155.3313
 CYCLE:   204 TIME:   0.023 TIME LEFT:  2.00D  GRAD.:    14.558 HEAT: -155.4895
 CYCLE:   205 TIME:   0.023 TIME LEFT:  2.00D  GRAD.:     9.957 HEAT: -155.5671
 CYCLE:   206 TIME:   0.023 TIME LEFT:  2.00D  GRAD.:    24.839 HEAT: -155.5845
 CYCLE:   207 TIME:   0.023 TIME LEFT:  2.00D  GRAD.:    36.178 HEAT: -155.5020
 CYCLE:   208 TIME:   0.023 TIME LEFT:  2.00D  GRAD.:     8.929 HEAT: -155.7602
 CYCLE:   209 TIME:   0.023 TIME LEFT:  2.00D  GRAD.:     6.413 HEAT: -155.8037
 CYCLE:   210 TIME:   0.031 TIME LEFT:  2.00D  GRAD.:    22.654 HEAT: -155.8172
 CYCLE:   211 TIME:   0.023 TIME LEFT:  2.00D  GRAD.:     7.909 HEAT: -155.9202
 CYCLE:   212 TIME:   0.023 TIME LEFT:  2.00D  GRAD.:     5.948 HEAT: -155.9717
 CYCLE:   213 TIME:   0.031 TIME LEFT:  2.00D  GRAD.:    13.415 HEAT: -156.1056
 CYCLE:   214 TIME:   0.023 TIME LEFT:  2.00D  GRAD.:    29.792 HEAT: -156.0994
 CYCLE:   215 TIME:   0.016 TIME LEFT:  2.00D  GRAD.:     9.670 HEAT: -156.2157
 CYCLE:   216 TIME:   0.023 TIME LEFT:  2.00D  GRAD.:     6.154 HEAT: -156.2707
 CYCLE:   217 TIME:   0.031 TIME LEFT:  2.00D  GRAD.:    12.348 HEAT: -156.3183
 CYCLE:   218 TIME:   0.023 TIME LEFT:  2.00D  GRAD.:    13.967 HEAT: -156.3815
 CYCLE:   219 TIME:   0.023 TIME LEFT:  2.00D  GRAD.:     8.684 HEAT: -156.4351
 CYCLE:   220 TIME:   0.023 TIME LEFT:  2.00D  GRAD.:     8.292 HEAT: -156.4927
 CYCLE:   221 TIME:   0.023 TIME LEFT:  2.00D  GRAD.:    19.268 HEAT: -156.6020
 CYCLE:   222 TIME:   0.023 TIME LEFT:  2.00D  GRAD.:    10.398 HEAT: -156.6895
 CYCLE:   223 TIME:   0.031 TIME LEFT:  2.00D  GRAD.:     7.907 HEAT: -156.7877
 CYCLE:   224 TIME:   0.023 TIME LEFT:  2.00D  GRAD.:    13.154 HEAT: -156.9486
 CYCLE:   225 TIME:   0.023 TIME LEFT:  2.00D  GRAD.:    40.518 HEAT: -156.9324
 CYCLE:   226 TIME:   0.023 TIME LEFT:  2.00D  GRAD.:    14.650 HEAT: -157.1192
 CYCLE:   227 TIME:   0.023 TIME LEFT:  2.00D  GRAD.:     9.430 HEAT: -157.1947
 CYCLE:   228 TIME:   0.023 TIME LEFT:  2.00D  GRAD.:    14.657 HEAT: -157.2948
 CYCLE:   229 TIME:   0.023 TIME LEFT:  2.00D  GRAD.:    15.866 HEAT: -157.3602
 CYCLE:   230 TIME:   0.023 TIME LEFT:  2.00D  GRAD.:     8.439 HEAT: -157.4907
 CYCLE:   231 TIME:   0.023 TIME LEFT:  2.00D  GRAD.:    15.851 HEAT: -157.5446
 CYCLE:   232 TIME:   0.023 TIME LEFT:  2.00D  GRAD.:    13.336 HEAT: -157.6274
 CYCLE:   233 TIME:   0.023 TIME LEFT:  2.00D  GRAD.:    13.028 HEAT: -157.6727
 CYCLE:   234 TIME:   0.023 TIME LEFT:  2.00D  GRAD.:     7.098 HEAT: -157.7294
 CYCLE:   235 TIME:   0.031 TIME LEFT:  2.00D  GRAD.:    15.777 HEAT: -157.7679
 CYCLE:   236 TIME:   0.023 TIME LEFT:  2.00D  GRAD.:     6.058 HEAT: -157.8305
 CYCLE:   237 TIME:   0.023 TIME LEFT:  2.00D  GRAD.:     4.151 HEAT: -157.8667
 CYCLE:   238 TIME:   0.023 TIME LEFT:  2.00D  GRAD.:    10.753 HEAT: -157.9339
 CYCLE:   239 TIME:   0.023 TIME LEFT:  2.00D  GRAD.:    16.691 HEAT: -157.9536
 CYCLE:   240 TIME:   0.023 TIME LEFT:  2.00D  GRAD.:     6.620 HEAT: -157.9962
 CYCLE:   241 TIME:   0.023 TIME LEFT:  2.00D  GRAD.:     4.024 HEAT: -158.0192
 CYCLE:   242 TIME:   0.023 TIME LEFT:  2.00D  GRAD.:     8.729 HEAT: -158.0292
 CYCLE:   243 TIME:   0.023 TIME LEFT:  2.00D  GRAD.:     6.420 HEAT: -158.0714
 CYCLE:   244 TIME:   0.023 TIME LEFT:  2.00D  GRAD.:     7.013 HEAT: -158.0928
 CYCLE:   245 TIME:   0.023 TIME LEFT:  2.00D  GRAD.:     4.737 HEAT: -158.1156
 CYCLE:   246 TIME:   0.023 TIME LEFT:  2.00D  GRAD.:     7.160 HEAT: -158.1478
 CYCLE:   247 TIME:   0.023 TIME LEFT:  2.00D  GRAD.:     6.652 HEAT: -158.1677
 CYCLE:   248 TIME:   0.023 TIME LEFT:  2.00D  GRAD.:    17.477 HEAT: -158.1559
 CYCLE:   249 TIME:   0.023 TIME LEFT:  2.00D  GRAD.:     4.891 HEAT: -158.2073
 CYCLE:   250 TIME:   0.023 TIME LEFT:  2.00D  GRAD.:     4.073 HEAT: -158.2199
 CYCLE:   251 TIME:   0.031 TIME LEFT:  2.00D  GRAD.:     3.579 HEAT: -158.2348
 CYCLE:   252 TIME:   0.023 TIME LEFT:  2.00D  GRAD.:    10.408 HEAT: -158.2413
 CYCLE:   253 TIME:   0.016 TIME LEFT:  2.00D  GRAD.:     8.018 HEAT: -158.2635
 CYCLE:   254 TIME:   0.023 TIME LEFT:  2.00D  GRAD.:     3.844 HEAT: -158.2787
 CYCLE:   255 TIME:   0.023 TIME LEFT:  2.00D  GRAD.:     2.591 HEAT: -158.2872
 CYCLE:   256 TIME:   0.023 TIME LEFT:  2.00D  GRAD.:     4.808 HEAT: -158.3027
 CYCLE:   257 TIME:   0.023 TIME LEFT:  2.00D  GRAD.:     5.751 HEAT: -158.3188
 CYCLE:   258 TIME:   0.023 TIME LEFT:  2.00D  GRAD.:     9.332 HEAT: -158.3245
 CYCLE:   259 TIME:   0.023 TIME LEFT:  2.00D  GRAD.:     4.086 HEAT: -158.3453
 CYCLE:   260 TIME:   0.023 TIME LEFT:  2.00D  GRAD.:     4.162 HEAT: -158.3598
 CYCLE:   261 TIME:   0.023 TIME LEFT:  2.00D  GRAD.:     4.822 HEAT: -158.3773
 CYCLE:   262 TIME:   0.023 TIME LEFT:  2.00D  GRAD.:     9.141 HEAT: -158.4007
 CYCLE:   263 TIME:   0.023 TIME LEFT:  2.00D  GRAD.:    14.504 HEAT: -158.3853
 CYCLE:   264 TIME:   0.023 TIME LEFT:  2.00D  GRAD.:     3.574 HEAT: -158.4278
 CYCLE:   265 TIME:   0.023 TIME LEFT:  2.00D  GRAD.:     2.736 HEAT: -158.4307
 CYCLE:   266 TIME:   0.023 TIME LEFT:  2.00D  GRAD.:     4.449 HEAT: -158.4467
 CYCLE:   267 TIME:   0.023 TIME LEFT:  2.00D  GRAD.:     4.919 HEAT: -158.4601
 CYCLE:   268 TIME:   0.023 TIME LEFT:  2.00D  GRAD.:     3.182 HEAT: -158.4686
 CYCLE:   269 TIME:   0.023 TIME LEFT:  2.00D  GRAD.:     2.943 HEAT: -158.4751
 CYCLE:   270 TIME:   0.023 TIME LEFT:  2.00D  GRAD.:     3.075 HEAT: -158.4843
 CYCLE:   271 TIME:   0.023 TIME LEFT:  2.00D  GRAD.:     8.091 HEAT: -158.4934
 CYCLE:   272 TIME:   0.023 TIME LEFT:  2.00D  GRAD.:     3.304 HEAT: -158.5064
 CYCLE:   273 TIME:   0.016 TIME LEFT:  2.00D  GRAD.:     2.685 HEAT: -158.5121
 CYCLE:   274 TIME:   0.023 TIME LEFT:  2.00D  GRAD.:     3.223 HEAT: -158.5195
 CYCLE:   275 TIME:   0.023 TIME LEFT:  2.00D  GRAD.:     7.502 HEAT: -158.5259
 CYCLE:   276 TIME:   0.023 TIME LEFT:  2.00D  GRAD.:     2.794 HEAT: -158.5353
 CYCLE:   277 TIME:   0.023 TIME LEFT:  2.00D  GRAD.:     2.327 HEAT: -158.5386
 CYCLE:   278 TIME:   0.023 TIME LEFT:  2.00D  GRAD.:     3.496 HEAT: -158.5447
 CYCLE:   279 TIME:   0.023 TIME LEFT:  2.00D  GRAD.:     4.034 HEAT: -158.5522
 CYCLE:   280 TIME:   0.023 TIME LEFT:  2.00D  GRAD.:     5.551 HEAT: -158.5574
 CYCLE:   281 TIME:   0.023 TIME LEFT:  2.00D  GRAD.:     2.102 HEAT: -158.5651
 CYCLE:   282 TIME:   0.023 TIME LEFT:  2.00D  GRAD.:     1.885 HEAT: -158.5673
 CYCLE:   283 TIME:   0.016 TIME LEFT:  2.00D  GRAD.:     2.525 HEAT: -158.5711
 CYCLE:   284 TIME:   0.023 TIME LEFT:  2.00D  GRAD.:     2.819 HEAT: -158.5765
 CYCLE:   285 TIME:   0.023 TIME LEFT:  2.00D  GRAD.:     2.229 HEAT: -158.5807
 CYCLE:   286 TIME:   0.023 TIME LEFT:  2.00D  GRAD.:     2.504 HEAT: -158.5854
 CYCLE:   287 TIME:   0.023 TIME LEFT:  2.00D  GRAD.:     3.861 HEAT: -158.5885
 CYCLE:   288 TIME:   0.016 TIME LEFT:  2.00D  GRAD.:     2.385 HEAT: -158.5923
 CYCLE:   289 TIME:   0.023 TIME LEFT:  2.00D  GRAD.:     2.161 HEAT: -158.5981
 CYCLE:   290 TIME:   0.023 TIME LEFT:  2.00D  GRAD.:     2.408 HEAT: -158.6016
 CYCLE:   291 TIME:   0.023 TIME LEFT:  2.00D  GRAD.:     4.093 HEAT: -158.6055
 CYCLE:   292 TIME:   0.023 TIME LEFT:  2.00D  GRAD.:     2.150 HEAT: -158.6105
 CYCLE:   293 TIME:   0.023 TIME LEFT:  2.00D  GRAD.:     2.430 HEAT: -158.6140
 CYCLE:   294 TIME:   0.023 TIME LEFT:  2.00D  GRAD.:     3.024 HEAT: -158.6200
 CYCLE:   295 TIME:   0.023 TIME LEFT:  2.00D  GRAD.:     8.722 HEAT: -158.6223
 CYCLE:   296 TIME:   0.023 TIME LEFT:  2.00D  GRAD.:     3.501 HEAT: -158.6326
 CYCLE:   297 TIME:   0.023 TIME LEFT:  2.00D  GRAD.:     1.910 HEAT: -158.6384
 CYCLE:   298 TIME:   0.023 TIME LEFT:  2.00D  GRAD.:     2.783 HEAT: -158.6432
 CYCLE:   299 TIME:   0.023 TIME LEFT:  2.00D  GRAD.:     2.813 HEAT: -158.6501
 CYCLE:   300 TIME:   0.023 TIME LEFT:  2.00D  GRAD.:     3.277 HEAT: -158.6612
 CYCLE:   301 TIME:   0.023 TIME LEFT:  2.00D  GRAD.:     4.320 HEAT: -158.6717
 CYCLE:   302 TIME:   0.023 TIME LEFT:  2.00D  GRAD.:     4.116 HEAT: -158.6818
 CYCLE:   303 TIME:   0.023 TIME LEFT:  2.00D  GRAD.:     4.512 HEAT: -158.6884
 CYCLE:   304 TIME:   0.023 TIME LEFT:  2.00D  GRAD.:     8.354 HEAT: -158.6874
 CYCLE:   305 TIME:   0.023 TIME LEFT:  2.00D  GRAD.:   150.550 HEAT: -155.4701
 CYCLE:   306 TIME:   0.023 TIME LEFT:  2.00D  GRAD.:    19.273 HEAT: -158.6381
 CYCLE:   307 TIME:   0.031 TIME LEFT:  2.00D  GRAD.:    12.136 HEAT: -158.6959
 CYCLE:   308 TIME:   0.023 TIME LEFT:  2.00D  GRAD.:     6.783 HEAT: -158.7453
 CYCLE:   309 TIME:   0.023 TIME LEFT:  2.00D  GRAD.:    19.848 HEAT: -158.6527
 CYCLE:   310 TIME:   0.031 TIME LEFT:  2.00D  GRAD.:     7.231 HEAT: -158.7554
 CYCLE:   311 TIME:   0.023 TIME LEFT:  2.00D  GRAD.:     8.639 HEAT: -158.7303
 CYCLE:   312 TIME:   0.023 TIME LEFT:  2.00D  GRAD.:    23.323 HEAT: -158.6146
 CYCLE:   313 TIME:   0.031 TIME LEFT:  2.00D  GRAD.:   103.596 HEAT: -155.9837
 CYCLE:   314 TIME:   0.023 TIME LEFT:  2.00D  GRAD.:    71.103 HEAT: -157.2681
 CYCLE:   315 TIME:   0.031 TIME LEFT:  2.00D  GRAD.:    21.548 HEAT: -158.5523
 CYCLE:   316 TIME:   0.023 TIME LEFT:  2.00D  GRAD.:    12.058 HEAT: -158.8271
 CYCLE:   317 TIME:   0.031 TIME LEFT:  2.00D  GRAD.:   161.670 HEAT: -153.8974
 CYCLE:   318 TIME:   0.023 TIME LEFT:  2.00D  GRAD.:    28.018 HEAT: -158.6089
 CYCLE:   319 TIME:   0.031 TIME LEFT:  2.00D  GRAD.:    26.001 HEAT: -158.5315
 CYCLE:   320 TIME:   0.023 TIME LEFT:  2.00D  GRAD.:    21.791 HEAT: -158.7415
 CYCLE:   321 TIME:   0.023 TIME LEFT:  2.00D  GRAD.:    11.578 HEAT: -158.8687
 CYCLE:   322 TIME:   0.023 TIME LEFT:  2.00D  GRAD.:     9.257 HEAT: -158.8596
 CYCLE:   323 TIME:   0.023 TIME LEFT:  2.00D  GRAD.:     4.885 HEAT: -158.9020
 CYCLE:   324 TIME:   0.023 TIME LEFT:  2.00D  GRAD.:     6.617 HEAT: -158.8978
 CYCLE:   325 TIME:   0.023 TIME LEFT:  2.00D  GRAD.:     4.315 HEAT: -158.9126
 CYCLE:   326 TIME:   0.023 TIME LEFT:  2.00D  GRAD.:     5.864 HEAT: -158.9168
 CYCLE:   327 TIME:   0.023 TIME LEFT:  2.00D  GRAD.:     2.898 HEAT: -158.9254
 CYCLE:   328 TIME:   0.023 TIME LEFT:  2.00D  GRAD.:     5.337 HEAT: -158.9479
 CYCLE:   329 TIME:   0.023 TIME LEFT:  2.00D  GRAD.:     7.361 HEAT: -158.9678
 CYCLE:   330 TIME:   0.023 TIME LEFT:  2.00D  GRAD.:     8.742 HEAT: -159.0004
 CYCLE:   331 TIME:   0.023 TIME LEFT:  2.00D  GRAD.:    39.488 HEAT: -158.6892
 CYCLE:   332 TIME:   0.023 TIME LEFT:  2.00D  GRAD.:     4.192 HEAT: -159.0375
 CYCLE:   333 TIME:   0.023 TIME LEFT:  2.00D  GRAD.:     3.729 HEAT: -159.0471
 CYCLE:   334 TIME:   0.023 TIME LEFT:  2.00D  GRAD.:     4.159 HEAT: -159.0618
 CYCLE:   335 TIME:   0.023 TIME LEFT:  2.00D  GRAD.:     6.937 HEAT: -159.0704
 CYCLE:   336 TIME:   0.023 TIME LEFT:  2.00D  GRAD.:     6.225 HEAT: -159.0842
 CYCLE:   337 TIME:   0.023 TIME LEFT:  2.00D  GRAD.:     3.283 HEAT: -159.0948
 CYCLE:   338 TIME:   0.016 TIME LEFT:  2.00D  GRAD.:     3.605 HEAT: -159.1035
 CYCLE:   339 TIME:   0.023 TIME LEFT:  2.00D  GRAD.:     4.642 HEAT: -159.1135
 CYCLE:   340 TIME:   0.023 TIME LEFT:  2.00D  GRAD.:     6.130 HEAT: -159.1245
 CYCLE:   341 TIME:   0.023 TIME LEFT:  2.00D  GRAD.:     5.527 HEAT: -159.1302
 CYCLE:   342 TIME:   0.023 TIME LEFT:  2.00D  GRAD.:     2.493 HEAT: -159.1383
 CYCLE:   343 TIME:   0.023 TIME LEFT:  2.00D  GRAD.:     2.085 HEAT: -159.1430
 CYCLE:   344 TIME:   0.023 TIME LEFT:  2.00D  GRAD.:     3.252 HEAT: -159.1478
 CYCLE:   345 TIME:   0.023 TIME LEFT:  2.00D  GRAD.:     3.591 HEAT: -159.1538
 CYCLE:   346 TIME:   0.023 TIME LEFT:  2.00D  GRAD.:     2.349 HEAT: -159.1593
 CYCLE:   347 TIME:   0.023 TIME LEFT:  2.00D  GRAD.:     2.217 HEAT: -159.1632
 CYCLE:   348 TIME:   0.023 TIME LEFT:  2.00D  GRAD.:     2.766 HEAT: -159.1670
 CYCLE:   349 TIME:   0.016 TIME LEFT:  2.00D  GRAD.:     1.913 HEAT: -159.1708
 CYCLE:   350 TIME:   0.023 TIME LEFT:  2.00D  GRAD.:     1.852 HEAT: -159.1744
 CYCLE:   351 TIME:   0.023 TIME LEFT:  2.00D  GRAD.:     2.853 HEAT: -159.1781
 CYCLE:   352 TIME:   0.023 TIME LEFT:  2.00D  GRAD.:     2.811 HEAT: -159.1830
 CYCLE:   353 TIME:   0.023 TIME LEFT:  2.00D  GRAD.:     3.161 HEAT: -159.1877
 CYCLE:   354 TIME:   0.023 TIME LEFT:  2.00D  GRAD.:     3.877 HEAT: -159.1900
 CYCLE:   355 TIME:   0.016 TIME LEFT:  2.00D  GRAD.:     1.894 HEAT: -159.1938
 CYCLE:   356 TIME:   0.023 TIME LEFT:  2.00D  GRAD.:     1.560 HEAT: -159.1960
 CYCLE:   357 TIME:   0.023 TIME LEFT:  2.00D  GRAD.:     1.595 HEAT: -159.1989
 CYCLE:   358 TIME:   0.023 TIME LEFT:  2.00D  GRAD.:     2.665 HEAT: -159.2037
 CYCLE:   359 TIME:   0.023 TIME LEFT:  2.00D  GRAD.:     5.776 HEAT: -159.2032
 CYCLE:   360 TIME:   0.023 TIME LEFT:  2.00D  GRAD.:     1.871 HEAT: -159.2084
 CYCLE:   361 TIME:   0.023 TIME LEFT:  2.00D  GRAD.:     1.222 HEAT: -159.2105
 CYCLE:   362 TIME:   0.023 TIME LEFT:  2.00D  GRAD.:     1.936 HEAT: -159.2150
 CYCLE:   363 TIME:   0.023 TIME LEFT:  2.00D  GRAD.:     2.984 HEAT: -159.2197
 CYCLE:   364 TIME:   0.023 TIME LEFT:  2.00D  GRAD.:     3.930 HEAT: -159.2208
 CYCLE:   365 TIME:   0.023 TIME LEFT:  2.00D  GRAD.:     1.696 HEAT: -159.2250
 CYCLE:   366 TIME:   0.023 TIME LEFT:  2.00D  GRAD.:     1.934 HEAT: -159.2276
 CYCLE:   367 TIME:   0.023 TIME LEFT:  2.00D  GRAD.:     1.516 HEAT: -159.2298
 CYCLE:   368 TIME:   0.023 TIME LEFT:  2.00D  GRAD.:     2.557 HEAT: -159.2321
 CYCLE:   369 TIME:   0.023 TIME LEFT:  2.00D  GRAD.:     4.060 HEAT: -159.2348
 CYCLE:   370 TIME:   0.023 TIME LEFT:  2.00D  GRAD.:     1.781 HEAT: -159.2383
 CYCLE:   371 TIME:   0.031 TIME LEFT:  2.00D  GRAD.:     1.762 HEAT: -159.2407
 CYCLE:   372 TIME:   0.023 TIME LEFT:  2.00D  GRAD.:     2.034 HEAT: -159.2433
 CYCLE:   373 TIME:   0.023 TIME LEFT:  2.00D  GRAD.:     5.028 HEAT: -159.2439
 CYCLE:   374 TIME:   0.023 TIME LEFT:  2.00D  GRAD.:     1.882 HEAT: -159.2486
 CYCLE:   375 TIME:   0.023 TIME LEFT:  2.00D  GRAD.:     1.492 HEAT: -159.2509
 CYCLE:   376 TIME:   0.023 TIME LEFT:  2.00D  GRAD.:     1.448 HEAT: -159.2524
 CYCLE:   377 TIME:   0.031 TIME LEFT:  2.00D  GRAD.:     1.998 HEAT: -159.2555
 CYCLE:   378 TIME:   0.023 TIME LEFT:  2.00D  GRAD.:     5.406 HEAT: -159.2554
 CYCLE:   379 TIME:   0.016 TIME LEFT:  2.00D  GRAD.:     1.755 HEAT: -159.2603
 CYCLE:   380 TIME:   0.031 TIME LEFT:  2.00D  GRAD.:     1.102 HEAT: -159.2614
 CYCLE:   381 TIME:   0.023 TIME LEFT:  2.00D  GRAD.:     1.530 HEAT: -159.2624
 CYCLE:   382 TIME:   0.031 TIME LEFT:  2.00D  GRAD.:     3.446 HEAT: -159.2642
 CYCLE:   383 TIME:   0.023 TIME LEFT:  2.00D  GRAD.:     1.675 HEAT: -159.2665
 CYCLE:   384 TIME:   0.023 TIME LEFT:  2.00D  GRAD.:     0.990 HEAT: -159.2678
 CYCLE:   385 TIME:   0.023 TIME LEFT:  2.00D  GRAD.:     1.763 HEAT: -159.2686
 CYCLE:   386 TIME:   0.023 TIME LEFT:  2.00D  GRAD.:     1.351 HEAT: -159.2705
 CYCLE:   387 TIME:   0.023 TIME LEFT:  2.00D  GRAD.:     2.385 HEAT: -159.2712
 CYCLE:   388 TIME:   0.023 TIME LEFT:  2.00D  GRAD.:     0.945 HEAT: -159.2723
 CYCLE:   389 TIME:   0.023 TIME LEFT:  2.00D  GRAD.:     0.963 HEAT: -159.2727
 CYCLE:   390 TIME:   0.031 TIME LEFT:  2.00D  GRAD.:     0.953 HEAT: -159.2732
 CYCLE:   391 TIME:   0.023 TIME LEFT:  2.00D  GRAD.:     3.091 HEAT: -159.2728
 CYCLE:   392 TIME:   0.023 TIME LEFT:  2.00D  GRAD.:     0.763 HEAT: -159.2744
 CYCLE:   393 TIME:   0.023 TIME LEFT:  2.00D  GRAD.:     0.556 HEAT: -159.2749
 CYCLE:   394 TIME:   0.031 TIME LEFT:  2.00D  GRAD.:     0.603 HEAT: -159.2753
 CYCLE:   395 TIME:   0.023 TIME LEFT:  2.00D  GRAD.:     2.169 HEAT: -159.2755
 CYCLE:   396 TIME:   0.023 TIME LEFT:  2.00D  GRAD.:     0.770 HEAT: -159.2765
 CYCLE:   397 TIME:   0.023 TIME LEFT:  2.00D  GRAD.:     0.573 HEAT: -159.2768
 CYCLE:   398 TIME:   0.023 TIME LEFT:  2.00D  GRAD.:     0.827 HEAT: -159.2771
 CYCLE:   399 TIME:   0.023 TIME LEFT:  2.00D  GRAD.:     1.476 HEAT: -159.2772
 CYCLE:   400 TIME:   0.023 TIME LEFT:  2.00D  GRAD.:     0.584 HEAT: -159.2778
 CYCLE:   401 TIME:   0.023 TIME LEFT:  2.00D  GRAD.:     0.784 HEAT: -159.2781
 CYCLE:   402 TIME:   0.023 TIME LEFT:  2.00D  GRAD.:     0.584 HEAT: -159.2784
 CYCLE:   403 TIME:   0.031 TIME LEFT:  2.00D  GRAD.:     1.232 HEAT: -159.2784
 CYCLE:   404 TIME:   0.023 TIME LEFT:  2.00D  GRAD.:     2.905 HEAT: -159.2778
 CYCLE:   405 TIME:   0.023 TIME LEFT:  2.00D  GRAD.:     0.492 HEAT: -159.2790
 CYCLE:   406 TIME:   0.023 TIME LEFT:  2.00D  GRAD.:     1.003 HEAT: -159.2786
 CYCLE:   407 TIME:   0.023 TIME LEFT:  2.00D  GRAD.:     0.505 HEAT: -159.2792
 CYCLE:   408 TIME:   0.023 TIME LEFT:  2.00D  GRAD.:     0.722 HEAT: -159.2796
 CYCLE:   409 TIME:   0.023 TIME LEFT:  2.00D  GRAD.:     0.650 HEAT: -159.2799
 CYCLE:   410 TIME:   0.023 TIME LEFT:  2.00D  GRAD.:     1.940 HEAT: -159.2800
 CYCLE:   411 TIME:   0.023 TIME LEFT:  2.00D  GRAD.:     0.774 HEAT: -159.2808
 CYCLE:   412 TIME:   0.023 TIME LEFT:  2.00D  GRAD.:     0.542 HEAT: -159.2811
 CYCLE:   413 TIME:   0.023 TIME LEFT:  2.00D  GRAD.:     0.726 HEAT: -159.2814
 CYCLE:   414 TIME:   0.023 TIME LEFT:  2.00D  GRAD.:     1.343 HEAT: -159.2816
 CYCLE:   415 TIME:   0.023 TIME LEFT:  2.00D  GRAD.:     2.007 HEAT: -159.2817
 CYCLE:   416 TIME:   0.023 TIME LEFT:  2.00D  GRAD.:     0.794 HEAT: -159.2822
 CYCLE:   417 TIME:   0.023 TIME LEFT:  2.00D  GRAD.:     0.451 HEAT: -159.2825
 CYCLE:   418 TIME:   0.023 TIME LEFT:  2.00D  GRAD.:     0.624 HEAT: -159.2827
 CYCLE:   419 TIME:   0.023 TIME LEFT:  2.00D  GRAD.:     0.995 HEAT: -159.2828
 CYCLE:   420 TIME:   0.023 TIME LEFT:  2.00D  GRAD.:     1.942 HEAT: -159.2828
 CYCLE:   421 TIME:   0.023 TIME LEFT:  2.00D  GRAD.:     0.820 HEAT: -159.2833
 CYCLE:   422 TIME:   0.016 TIME LEFT:  2.00D  GRAD.:     0.407 HEAT: -159.2837
 CYCLE:   423 TIME:   0.023 TIME LEFT:  2.00D  GRAD.:     0.472 HEAT: -159.2838
 CYCLE:   424 TIME:   0.023 TIME LEFT:  2.00D  GRAD.:     0.589 HEAT: -159.2841
 CYCLE:   425 TIME:   0.031 TIME LEFT:  2.00D  GRAD.:     1.796 HEAT: -159.2839
 CYCLE:   426 TIME:   0.023 TIME LEFT:  2.00D  GRAD.:     0.434 HEAT: -159.2844
 CYCLE:   427 TIME:   0.016 TIME LEFT:  2.00D  GRAD.:     0.362 HEAT: -159.2846
 CYCLE:   428 TIME:   0.023 TIME LEFT:  2.00D  GRAD.:     0.570 HEAT: -159.2848
 CYCLE:   429 TIME:   0.023 TIME LEFT:  2.00D  GRAD.:     0.605 HEAT: -159.2849
 CYCLE:   430 TIME:   0.023 TIME LEFT:  2.00D  GRAD.:     0.599 HEAT: -159.2849
 CYCLE:   431 TIME:   0.023 TIME LEFT:  2.00D  GRAD.:     0.343 HEAT: -159.2850
 CYCLE:   432 TIME:   0.023 TIME LEFT:  2.00D  GRAD.:     0.385 HEAT: -159.2851
 CYCLE:   433 TIME:   0.023 TIME LEFT:  2.00D  GRAD.:     0.546 HEAT: -159.2853
 CYCLE:   434 TIME:   0.023 TIME LEFT:  2.00D  GRAD.:     0.477 HEAT: -159.2854
 CYCLE:   435 TIME:   0.023 TIME LEFT:  2.00D  GRAD.:     0.510 HEAT: -159.2855
 CYCLE:   436 TIME:   0.023 TIME LEFT:  2.00D  GRAD.:     0.466 HEAT: -159.2855
 CYCLE:   437 TIME:   0.023 TIME LEFT:  2.00D  GRAD.:     1.156 HEAT: -159.2854
 CYCLE:   438 TIME:   0.023 TIME LEFT:  2.00D  GRAD.:     0.339 HEAT: -159.2856
 CYCLE:   439 TIME:   0.023 TIME LEFT:  2.00D  GRAD.:     0.266 HEAT: -159.2858
 CYCLE:   440 TIME:   0.016 TIME LEFT:  2.00D  GRAD.:     0.204 HEAT: -159.2858
 CYCLE:   441 TIME:   0.031 TIME LEFT:  2.00D  GRAD.:     0.427 HEAT: -159.2860
 CYCLE:   442 TIME:   0.023 TIME LEFT:  2.00D  GRAD.:     1.083 HEAT: -159.2857
 CYCLE:   443 TIME:   0.023 TIME LEFT:  2.00D  GRAD.:     0.345 HEAT: -159.2859
 CYCLE:   444 TIME:   0.023 TIME LEFT:  2.00D  GRAD.:     0.258 HEAT: -159.2860
 CYCLE:   445 TIME:   0.023 TIME LEFT:  2.00D  GRAD.:     0.172 HEAT: -159.2861
 CYCLE:   446 TIME:   0.023 TIME LEFT:  2.00D  GRAD.:     0.871 HEAT: -159.2858
 CYCLE:   447 TIME:   0.023 TIME LEFT:  2.00D  GRAD.:     0.395 HEAT: -159.2861
 CYCLE:   448 TIME:   0.023 TIME LEFT:  2.00D  GRAD.:     0.945 HEAT: -159.2860
 CYCLE:   449 TIME:   0.023 TIME LEFT:  2.00D  GRAD.:     0.218 HEAT: -159.2862
 CYCLE:   450 TIME:   0.023 TIME LEFT:  2.00D  GRAD.:     0.878 HEAT: -159.2860
 CYCLE:   451 TIME:   0.023 TIME LEFT:  2.00D  GRAD.:     0.215 HEAT: -159.2863
 CYCLE:   452 TIME:   0.023 TIME LEFT:  2.00D  GRAD.:     0.778 HEAT: -159.2860
 CYCLE:   453 TIME:   0.023 TIME LEFT:  2.00D  GRAD.:     0.362 HEAT: -159.2863
 CYCLE:   454 TIME:   0.023 TIME LEFT:  2.00D  GRAD.:     0.940 HEAT: -159.2861
 CYCLE:   455 TIME:   0.031 TIME LEFT:  2.00D  GRAD.:     0.380 HEAT: -159.2864
 CYCLE:   456 TIME:   0.016 TIME LEFT:  2.00D  GRAD.:     0.379 HEAT: -159.2864
 CYCLE:   457 TIME:   0.023 TIME LEFT:  2.00D  GRAD.:     0.324 HEAT: -159.2864
 CYCLE:   458 TIME:   0.023 TIME LEFT:  2.00D  GRAD.:     0.179 HEAT: -159.2865
 CYCLE:   459 TIME:   0.023 TIME LEFT:  2.00D  GRAD.:     0.253 HEAT: -159.2865
 CYCLE:   460 TIME:   0.023 TIME LEFT:  2.00D  GRAD.:     1.702 HEAT: -159.2858
 CYCLE:   461 TIME:   0.031 TIME LEFT:  2.00D  GRAD.:     0.784 HEAT: -159.2864
 CYCLE:   462 TIME:   0.016 TIME LEFT:  2.00D  GRAD.:     2.220 HEAT: -159.2857
 CYCLE:   463 TIME:   0.023 TIME LEFT:  2.00D  GRAD.:     0.505 HEAT: -159.2866
 CYCLE:   464 TIME:   0.023 TIME LEFT:  2.00D  GRAD.:     0.617 HEAT: -159.2864
 CYCLE:   465 TIME:   0.016 TIME LEFT:  2.00D  GRAD.:     0.645 HEAT: -159.2865
 CYCLE:   466 TIME:   0.023 TIME LEFT:  2.00D  GRAD.:     0.302 HEAT: -159.2866
 CYCLE:   467 TIME:   0.023 TIME LEFT:  2.00D  GRAD.:     0.168 HEAT: -159.2867
 CYCLE:   468 TIME:   0.023 TIME LEFT:  2.00D  GRAD.:     0.177 HEAT: -159.2867
 CYCLE:   469 TIME:   0.031 TIME LEFT:  2.00D  GRAD.:     0.225 HEAT: -159.2865
 CYCLE:   470 TIME:   0.023 TIME LEFT:  2.00D  GRAD.:     0.510 HEAT: -159.2866
 CYCLE:   471 TIME:   0.023 TIME LEFT:  2.00D  GRAD.:     0.374 HEAT: -159.2867
 CYCLE:   472 TIME:   0.023 TIME LEFT:  2.00D  GRAD.:     0.287 HEAT: -159.2867
 CYCLE:   473 TIME:   0.016 TIME LEFT:  2.00D  GRAD.:     0.216 HEAT: -159.2867
 CYCLE:   474 TIME:   0.023 TIME LEFT:  2.00D  GRAD.:     0.336 HEAT: -159.2866
 CYCLE:   475 TIME:   0.023 TIME LEFT:  2.00D  GRAD.:     0.152 HEAT: -159.2867
 CYCLE:   476 TIME:   0.023 TIME LEFT:  2.00D  GRAD.:     0.681 HEAT: -159.2867
 CYCLE:   477 TIME:   0.023 TIME LEFT:  2.00D  GRAD.:     0.505 HEAT: -159.2867
 CYCLE:   478 TIME:   0.016 TIME LEFT:  2.00D  GRAD.:     4.722 HEAT: -159.2828
 CYCLE:   479 TIME:   0.023 TIME LEFT:  2.00D  GRAD.:     0.197 HEAT: -159.2868
 CYCLE:   480 TIME:   0.031 TIME LEFT:  2.00D  GRAD.:     1.217 HEAT: -159.2860
 CYCLE:   481 TIME:   0.023 TIME LEFT:  2.00D  GRAD.:     0.361 HEAT: -159.2868
 CYCLE:   482 TIME:   0.023 TIME LEFT:  2.00D  GRAD.:     1.343 HEAT: -159.2865
 CYCLE:   483 TIME:   0.023 TIME LEFT:  2.00D  GRAD.:     0.258 HEAT: -159.2869
 CYCLE:   484 TIME:   0.023 TIME LEFT:  2.00D  GRAD.:     1.510 HEAT: -159.2858
 CYCLE:   485 TIME:   0.031 TIME LEFT:  2.00D  GRAD.:     0.136 HEAT: -159.2868
 CYCLE:   486 TIME:   0.023 TIME LEFT:  2.00D  GRAD.:     0.311 HEAT: -159.2869
 CYCLE:   487 TIME:   0.023 TIME LEFT:  2.00D  GRAD.:     0.555 HEAT: -159.2869
 CYCLE:   488 TIME:   0.023 TIME LEFT:  2.00D  GRAD.:     0.282 HEAT: -159.2869
 CYCLE:   489 TIME:   0.023 TIME LEFT:  2.00D  GRAD.:     0.350 HEAT: -159.2867
 CYCLE:   490 TIME:   0.023 TIME LEFT:  2.00D  GRAD.:     0.143 HEAT: -159.2868
 CYCLE:   491 TIME:   0.031 TIME LEFT:  2.00D  GRAD.:     1.319 HEAT: -159.2866
 CYCLE:   492 TIME:   0.031 TIME LEFT:  2.00D  GRAD.:     0.218 HEAT: -159.2869
 CYCLE:   493 TIME:   0.023 TIME LEFT:  2.00D  GRAD.:     0.220 HEAT: -159.2868
 CYCLE:   494 TIME:   0.016 TIME LEFT:  2.00D  GRAD.:     0.109 HEAT: -159.2869
 CYCLE:   495 TIME:   0.031 TIME LEFT:  2.00D  GRAD.:     1.861 HEAT: -159.2863
 CYCLE:   496 TIME:   0.023 TIME LEFT:  2.00D  GRAD.:     0.419 HEAT: -159.2869
 CYCLE:   497 TIME:   0.023 TIME LEFT:  2.00D  GRAD.:     0.699 HEAT: -159.2868
 CYCLE:   498 TIME:   0.023 TIME LEFT:  2.00D  GRAD.:     0.309 HEAT: -159.2870
 CYCLE:   499 TIME:   0.023 TIME LEFT:  2.00D  GRAD.:     0.694 HEAT: -159.2870
 CYCLE:   500 TIME:   0.023 TIME LEFT:  2.00D  GRAD.:     0.387 HEAT: -159.2870
 CYCLE:   501 TIME:   0.023 TIME LEFT:  2.00D  GRAD.:     0.669 HEAT: -159.2868
 CYCLE:   502 TIME:   0.023 TIME LEFT:  2.00D  GRAD.:     0.155 HEAT: -159.2870
 CYCLE:   503 TIME:   0.023 TIME LEFT:  2.00D  GRAD.:     0.433 HEAT: -159.2871
 CYCLE:   504 TIME:   0.023 TIME LEFT:  2.00D  GRAD.:     0.226 HEAT: -159.2871
 CYCLE:   505 TIME:   0.031 TIME LEFT:  2.00D  GRAD.:     1.380 HEAT: -159.2862
 CYCLE:   506 TIME:   0.023 TIME LEFT:  2.00D  GRAD.:     0.468 HEAT: -159.2871
 CYCLE:   507 TIME:   0.023 TIME LEFT:  2.00D  GRAD.:     1.074 HEAT: -159.2870
 CYCLE:   508 TIME:   0.023 TIME LEFT:  2.00D  GRAD.:     0.206 HEAT: -159.2872
 CYCLE:   509 TIME:   0.023 TIME LEFT:  2.00D  GRAD.:     0.306 HEAT: -159.2871
 CYCLE:   510 TIME:   0.023 TIME LEFT:  2.00D  GRAD.:     0.183 HEAT: -159.2871
 CYCLE:   511 TIME:   0.023 TIME LEFT:  2.00D  GRAD.:     0.487 HEAT: -159.2872
 CYCLE:   512 TIME:   0.023 TIME LEFT:  2.00D  GRAD.:     0.151 HEAT: -159.2872
 CYCLE:   513 TIME:   0.023 TIME LEFT:  2.00D  GRAD.:     0.548 HEAT: -159.2870
 CYCLE:   514 TIME:   0.023 TIME LEFT:  2.00D  GRAD.:     0.158 HEAT: -159.2872
 CYCLE:   515 TIME:   0.031 TIME LEFT:  2.00D  GRAD.:     0.306 HEAT: -159.2872
 CYCLE:   516 TIME:   0.023 TIME LEFT:  2.00D  GRAD.:     0.120 HEAT: -159.2872
 CYCLE:   517 TIME:   0.023 TIME LEFT:  2.00D  GRAD.:     0.522 HEAT: -159.2870
 CYCLE:   518 TIME:   0.023 TIME LEFT:  2.00D  GRAD.:     0.243 HEAT: -159.2872
 CYCLE:   519 TIME:   0.023 TIME LEFT:  2.00D  GRAD.:     1.574 HEAT: -159.2868
 CYCLE:   520 TIME:   0.023 TIME LEFT:  2.00D  GRAD.:     0.154 HEAT: -159.2872
 CYCLE:   521 TIME:   0.023 TIME LEFT:  2.00D  GRAD.:     0.739 HEAT: -159.2870
 CYCLE:   522 TIME:   0.023 TIME LEFT:  2.00D  GRAD.:     0.159 HEAT: -159.2872
 CYCLE:   523 TIME:   0.023 TIME LEFT:  2.00D  GRAD.:     0.375 HEAT: -159.2871
 CYCLE:   524 TIME:   0.023 TIME LEFT:  2.00D  GRAD.:     0.258 HEAT: -159.2872
 CYCLE:   525 TIME:   0.031 TIME LEFT:  2.00D  GRAD.:     2.118 HEAT: -159.2863
 CYCLE:   526 TIME:   0.023 TIME LEFT:  2.00D  GRAD.:     0.551 HEAT: -159.2871
 CYCLE:   527 TIME:   0.023 TIME LEFT:  2.00D  GRAD.:     0.718 HEAT: -159.2872
 CYCLE:   528 TIME:   0.023 TIME LEFT:  2.00D  GRAD.:     0.086 HEAT: -159.2872
 CYCLE:   529 TIME:   0.023 TIME LEFT:  2.00D  GRAD.:     0.059 HEAT: -159.2872
 CYCLE:   530 TIME:   0.031 TIME LEFT:  2.00D  GRAD.:     0.566 HEAT: -159.2872
 CYCLE:   531 TIME:   0.023 TIME LEFT:  2.00D  GRAD.:     0.072 HEAT: -159.2872
 CYCLE:   532 TIME:   0.023 TIME LEFT:  2.00D  GRAD.:     0.110 HEAT: -159.2872
 CYCLE:   533 TIME:   0.023 TIME LEFT:  2.00D  GRAD.:     0.084 HEAT: -159.2872
 CYCLE:   534 TIME:   0.016 TIME LEFT:  2.00D  GRAD.:     0.232 HEAT: -159.2872
 CYCLE:   535 TIME:   0.023 TIME LEFT:  2.00D  GRAD.:     0.115 HEAT: -159.2872
 CYCLE:   536 TIME:   0.023 TIME LEFT:  2.00D  GRAD.:     0.075 HEAT: -159.2872
 CYCLE:   537 TIME:   0.023 TIME LEFT:  2.00D  GRAD.:     0.082 HEAT: -159.2872
 CYCLE:   538 TIME:   0.023 TIME LEFT:  2.00D  GRAD.:     0.093 HEAT: -159.2872
 CYCLE:   539 TIME:   0.023 TIME LEFT:  2.00D  GRAD.:     0.094 HEAT: -159.2872
 CYCLE:   540 TIME:   0.023 TIME LEFT:  2.00D  GRAD.:     0.163 HEAT: -159.2872
 CYCLE:   541 TIME:   0.023 TIME LEFT:  2.00D  GRAD.:     0.806 HEAT: -159.2871
 CYCLE:   542 TIME:   0.023 TIME LEFT:  2.00D  GRAD.:     0.142 HEAT: -159.2872
 CYCLE:   543 TIME:   0.023 TIME LEFT:  2.00D  GRAD.:     0.067 HEAT: -159.2872
 CYCLE:   544 TIME:   0.016 TIME LEFT:  2.00D  GRAD.:     0.070 HEAT: -159.2872
 CYCLE:   545 TIME:   0.023 TIME LEFT:  2.00D  GRAD.:     0.077 HEAT: -159.2872
 CYCLE:   546 TIME:   0.023 TIME LEFT:  2.00D  GRAD.:     0.080 HEAT: -159.2872
 CYCLE:   547 TIME:   0.023 TIME LEFT:  2.00D  GRAD.:     0.070 HEAT: -159.2872
 CYCLE:   548 TIME:   0.023 TIME LEFT:  2.00D  GRAD.:     0.134 HEAT: -159.2872
 CYCLE:   549 TIME:   0.023 TIME LEFT:  2.00D  GRAD.:     0.770 HEAT: -159.2870
 CYCLE:   550 TIME:   0.023 TIME LEFT:  2.00D  GRAD.:     0.067 HEAT: -159.2872
 CYCLE:   551 TIME:   0.016 TIME LEFT:  2.00D  GRAD.:     0.130 HEAT: -159.2871


           HEAT OF FORMATION IS ESSENTIALLY STATIONARY

 -------------------------------------------------------------------------------
 PM7 XYZ AUX GNORM=0.01 CHARGE=0 Singlet

 Mopac file generated by Gabedit


     HERBERTS TEST WAS SATISFIED IN BFGS                      
     SCF FIELD WAS ACHIEVED                                   


                              PM7 CALCULATION
                                                       MOPAC2016 (Version: 21.128L)
                                                       Sun May 16 20:20:02 2021
                                                       No. of days remaining = 357




          FINAL HEAT OF FORMATION =       -159.28717 KCAL/MOL =    -666.45752 KJ/MOL


          TOTAL ENERGY            =      -4552.05020 EV
          ELECTRONIC ENERGY       =     -40765.27914 EV  POINT GROUP:     C1  
          CORE-CORE REPULSION     =      36213.22895 EV
          COSMO AREA              =        329.08 SQUARE ANGSTROMS
          COSMO VOLUME            =        418.74 CUBIC ANGSTROMS

          GRADIENT NORM           =          0.41266 = 0.05836 PER ATOM
          IONIZATION POTENTIAL    =          8.626943 EV
          HOMO LUMO ENERGIES (EV) =         -8.627  0.189
          NO. OF FILLED LEVELS    =         71
          MOLECULAR WEIGHT        =        369.4164

          MOLECULAR DIMENSIONS (Angstroms)

            Atom       Atom       Distance
            H    43    H    36    11.58612
            H    50    H    25     7.75687
            H    38    H    32     6.50411


          SCF CALCULATIONS        =        553
 
          WALL-CLOCK TIME         =         13.203 SECONDS
          COMPUTATION TIME        =  1 MINUTE AND 18.954 SECONDS




   ATOM   CHEMICAL          X               Y               Z
  NUMBER   SYMBOL      (ANGSTROMS)     (ANGSTROMS)     (ANGSTROMS)
 
     1       C          0.55850932  *  -1.96191955  *   0.68343084  *
     2       C          1.91851221  *  -2.28001609  *   0.82631375  *
     3       C          2.89908421  *  -1.30145781  *   0.67308541  *
     4       C          2.55548822  *   0.01474687  *   0.32567671  *
     5       C          1.21086704  *   0.33635140  *   0.22171231  *
     6       C          0.24015699  *  -0.63823501  *   0.47145289  *
     7       C         -1.12046501  *  -0.04564323  *   0.26452703  *
     8       C         -1.97313182  *  -1.07990672  *  -0.48329197  *
     9       C         -1.96054863  *  -2.37868613  *   0.38613440  *
    10       C         -0.53608934  *  -2.97493923  *   0.61797767  *
    11       C         -0.73495096  *   1.25181710  *  -0.50668215  *
    12       C         -1.80541723  *   0.28370388  *   1.59817476  *
    13       C         -2.00361452  *  -0.99831565  *   2.43079790  *
    14       N         -2.70027782  *  -2.02786260  *   1.62201235  *
    15       C         -3.01625574  *  -3.21289968  *   2.44376687  *
    16       H         -3.03769610  *  -0.72770798  *  -0.53979096  *
    17       C         -1.46018852  *  -1.28245503  *  -1.86786287  *
    18       C         -0.94015083  *  -0.27115040  *  -2.56681439  *
    19       C         -0.84620973  *   1.13501613  *  -2.04596305  *
    20       H         -1.26166130  *   2.14406102  *  -0.11944818  *
    21       O          0.65906009  *   1.52172583  *  -0.19104094  *
    22       H         -1.71257928  *   1.73724463  *  -2.41288855  *
    23       O          0.32824895  *   1.60950698  *  -2.69850429  *
    24       O          3.58178679  *   0.83737140  *  -0.04375923  *
    25       H          2.21200437  *  -3.30558457  *   1.03425743  *
    26       H          3.95403254  *  -1.55536567  *   0.77623638  *
    27       H         -2.57008445  *  -3.15570724  *  -0.14491038  *
    28       H         -0.31277208  *  -3.67688260  *  -0.21460810  *
    29       H         -0.54463592  *  -3.59733296  *   1.53442972  *
    30       H         -2.78481544  *   0.76241931  *   1.41158919  *
    31       H         -1.19766824  *   1.00554239  *   2.17769638  *
    32       H         -2.63874668  *  -0.77038973  *   3.31430565  *
    33       H         -1.02046824  *  -1.35089145  *   2.81415238  *
    34       H         -3.72584463  *  -2.91133207  *   3.23374525  *
    35       H         -2.14678381  *  -3.68651909  *   2.92432551  *
    36       H         -3.52748274  *  -3.96606457  *   1.82279374  *
    37       H         -1.53309801  *  -2.28932886  *  -2.27036746  *
    38       H         -0.52995622  *  -0.39998588  *  -3.57044331  *
    39       C          3.46858983  *   2.19474625  *   0.17514691  *
    40       O          2.68052981  *   2.66186319  *   0.94693523  *
    41       C          4.47241514  *   2.88165144  *  -0.67625472  *
    42       H          5.36744591  *   2.26876526  *  -0.86221860  *
    43       H          4.78328186  *   3.83963796  *  -0.23643753  *
    44       H          4.02771492  *   3.09767020  *  -1.67218365  *
    45       C          0.87080697  *   2.83541565  *  -2.45427292  *
    46       O          1.97147564  *   2.99859737  *  -2.92073637  *
    47       C          0.10518779  *   3.88363861  *  -1.72161919  *
    48       H          0.42435065  *   4.88749343  *  -2.05025821  *
    49       H          0.33032468  *   3.83648950  *  -0.63804741  *
    50       H         -0.97830899  *   3.82101314  *  -1.85789815  *

                             CARTESIAN COORDINATES

   1    C        0.558509319    -1.961919549     0.683430842
   2    C        1.918512211    -2.280016088     0.826313746
   3    C        2.899084206    -1.301457811     0.673085413
   4    C        2.555488221     0.014746874     0.325676708
   5    C        1.210867040     0.336351403     0.221712306
   6    C        0.240156993    -0.638235008     0.471452893
   7    C       -1.120465008    -0.045643228     0.264527029
   8    C       -1.973131824    -1.079906725    -0.483291968
   9    C       -1.960548627    -2.378686127     0.386134403
  10    C       -0.536089341    -2.974939233     0.617977674
  11    C       -0.734950959     1.251817105    -0.506682154
  12    C       -1.805417231     0.283703877     1.598174757
  13    C       -2.003614525    -0.998315653     2.430797902
  14    N       -2.700277821    -2.027862596     1.622012351
  15    C       -3.016255735    -3.212899678     2.443766873
  16    H       -3.037696098    -0.727707983    -0.539790955
  17    C       -1.460188522    -1.282455032    -1.867862871
  18    C       -0.940150833    -0.271150396    -2.566814391
  19    C       -0.846209726     1.135016135    -2.045963045
  20    H       -1.261661300     2.144061023    -0.119448180
  21    O        0.659060090     1.521725835    -0.191040942
  22    H       -1.712579278     1.737244627    -2.412888546
  23    O        0.328248947     1.609506978    -2.698504289
  24    O        3.581786787     0.837371396    -0.043759229
  25    H        2.212004375    -3.305584565     1.034257430
  26    H        3.954032543    -1.555365668     0.776236381
  27    H       -2.570084447    -3.155707238    -0.144910383
  28    H       -0.312772080    -3.676882600    -0.214608103
  29    H       -0.544635919    -3.597332960     1.534429725
  30    H       -2.784815444     0.762419315     1.411589193
  31    H       -1.197668243     1.005542391     2.177696378
  32    H       -2.638746678    -0.770389728     3.314305652
  33    H       -1.020468236    -1.350891449     2.814152381
  34    H       -3.725844633    -2.911332068     3.233745249
  35    H       -2.146783811    -3.686519093     2.924325508
  36    H       -3.527482741    -3.966064574     1.822793741
  37    H       -1.533098012    -2.289328860    -2.270367455
  38    H       -0.529956225    -0.399985875    -3.570443307
  39    C        3.468589833     2.194746251     0.175146907
  40    O        2.680529809     2.661863189     0.946935225
  41    C        4.472415140     2.881651445    -0.676254724
  42    H        5.367445909     2.268765261    -0.862218598
  43    H        4.783281863     3.839637964    -0.236437531
  44    H        4.027714923     3.097670195    -1.672183654
  45    C        0.870806973     2.835415654    -2.454272919
  46    O        1.971475637     2.998597366    -2.920736365
  47    C        0.105187790     3.883638610    -1.721619194
  48    H        0.424350655     4.887493431    -2.050258208
  49    H        0.330324676     3.836489496    -0.638047408
  50    H       -0.978308989     3.821013139    -1.857898155


           Empirical Formula: C21 H23 N O5  =    50 atoms



      MOLECULAR POINT GROUP   :   C1  


                  EIGENVALUES  
 -35.40181 -32.16240 -31.24018 -30.90122 -30.46626 -30.03578 -29.84190 -29.54166
 -27.72925 -27.56342 -26.71699 -26.47105 -25.82912 -25.41053 -24.92151 -24.13466
 -23.65046 -22.15111 -21.82275 -21.56907 -20.93566 -20.70037 -19.90729 -19.71080
 -18.31102 -17.73933 -17.61823 -17.28205 -17.14213 -16.71002 -16.57261 -16.18181
 -16.07278 -16.00944 -15.69072 -15.55763 -15.43323 -15.23988 -14.99332 -14.85872
 -14.44625 -14.33837 -14.24422 -13.99072 -13.93802 -13.76470 -13.68479 -13.53847
 -13.48299 -13.32011 -13.13951 -13.02617 -12.97206 -12.84597 -12.78109 -12.50862
 -12.39979 -12.19932 -12.08450 -11.86302 -11.59333 -11.36867 -11.31719 -11.08034
 -10.85150 -10.69840 -10.47934 -10.02824  -9.26190  -8.93958  -8.62694   0.18899
   0.33688   0.66028   1.31531   1.37257   1.39306   1.80077   2.11388   2.50042
   2.62207   2.86739   3.12091   3.25620   3.30161   3.60948   3.66683   3.69548
   3.81028   3.91205   4.03835   4.07700   4.22910   4.43711   4.51688   4.53152
   4.61478   4.69464   4.87659   4.88807   4.99162   5.04896   5.06762   5.14594
   5.19258   5.25809   5.29924   5.30477   5.31397   5.43070   5.43764   5.46431
   5.52649   5.59613   5.63518   5.74260   5.77005   5.78570   5.85980   5.90094
   5.96692   6.01347   6.14706   6.21011   6.24875   6.27811   6.29954   6.36308
   6.45172   6.45497   6.66545


              NET ATOMIC CHARGES AND DIPOLE CONTRIBUTIONS

  ATOM NO.   TYPE          CHARGE      No. of ELECS.   s-Pop       p-Pop       
    1          C           0.034770        3.9652     1.06236     2.90287
    2          C          -0.203384        4.2034     1.07648     3.12690
    3          C          -0.144426        4.1444     1.08172     3.06270
    4          C           0.146484        3.8535     1.06191     2.79161
    5          C           0.148526        3.8515     1.08038     2.77110
    6          C          -0.132713        4.1327     1.06946     3.06325
    7          C           0.028915        3.9711     1.06372     2.90736
    8          C          -0.145068        4.1451     1.06690     3.07817
    9          C           0.061214        3.9388     1.08058     2.85821
   10          C          -0.331022        4.3310     1.06444     3.26658
   11          C           0.012402        3.9876     1.12055     2.86705
   12          C          -0.292902        4.2929     1.06789     3.22501
   13          C          -0.101181        4.1012     1.06841     3.03277
   14          N          -0.435173        5.4352     1.68376     3.75141
   15          C          -0.274151        4.2742     1.06071     3.21345
   16          H           0.171470        0.8285     0.82853
   17          C          -0.145935        4.1459     1.09115     3.05478
   18          C          -0.187116        4.1871     1.09192     3.09519
   19          C           0.097520        3.9025     1.09445     2.80803
   20          H           0.149502        0.8505     0.85050
   21          O          -0.288343        6.2883     1.88551     4.40283
   22          H           0.134573        0.8654     0.86543
   23          O          -0.411564        6.4116     1.86039     4.55117
   24          O          -0.382539        6.3825     1.85611     4.52643
   25          H           0.159533        0.8405     0.84047
   26          H           0.173287        0.8267     0.82671
   27          H           0.133282        0.8667     0.86672
   28          H           0.160058        0.8399     0.83994
   29          H           0.157105        0.8429     0.84290
   30          H           0.149951        0.8500     0.85005
   31          H           0.156815        0.8432     0.84318
   32          H           0.136200        0.8638     0.86380
   33          H           0.129728        0.8703     0.87027
   34          H           0.146865        0.8531     0.85314
   35          H           0.120565        0.8794     0.87943
   36          H           0.143051        0.8569     0.85695
   37          H           0.152700        0.8473     0.84730
   38          H           0.175969        0.8240     0.82403
   39          C           0.633881        3.3661     1.11940     2.24672
   40          O          -0.476484        6.4765     1.87484     4.60164
   41          C          -0.515120        4.5151     1.06099     3.45413
   42          H           0.187367        0.8126     0.81263
   43          H           0.181245        0.8188     0.81876
   44          H           0.215439        0.7846     0.78456
   45          C           0.647981        3.3520     1.11003     2.24199
   46          O          -0.488828        6.4888     1.87768     4.61115
   47          C          -0.551313        4.5513     1.06463     3.48668
   48          H           0.186591        0.8134     0.81341
   49          H           0.207012        0.7930     0.79299
   50          H           0.167262        0.8327     0.83274
 DIPOLE           X         Y         Z       TOTAL
 POINT-CHG.    -4.088    -1.768     1.212     4.616
 HYBRID         0.982     0.194     0.216     1.024
 SUM           -3.106    -1.574     1.428     3.764


          ATOMIC ORBITAL ELECTRON POPULATIONS

     Atom    s        px        py        pz   
    1  C   1.06236   0.96769   0.96466   0.97052
    2  C   1.07648   0.97982   1.07719   1.06989
    3  C   1.08172   1.08518   0.96787   1.00966
    4  C   1.06191   0.85185   0.90690   1.03285
    5  C   1.08038   0.95904   0.84930   0.96275
    6  C   1.06946   0.98163   0.99560   1.08603
    7  C   1.06372   0.97413   0.95489   0.97834
    8  C   1.06690   1.09543   1.01156   0.97119
    9  C   1.08058   0.94539   1.00446   0.90835
   10  C   1.06444   1.02003   1.07807   1.16849
   11  C   1.12055   0.83107   1.05271   0.98328
   12  C   1.06789   1.13396   1.06143   1.02963
   13  C   1.06841   1.08530   0.93906   1.00841
   14  N   1.68376   1.48006   1.14891   1.12244
   15  C   1.06071   1.13271   0.99532   1.08541
   16  H   0.82853
   17  C   1.09115   1.00006   1.06420   0.99052
   18  C   1.09192   1.03399   0.97247   1.08873
   19  C   1.09445   0.88226   0.98735   0.93842
   20  H   0.85050
   21  O   1.88551   1.27875   1.31150   1.81258
   22  H   0.86543
   23  O   1.86039   1.46930   1.43976   1.64212
   24  O   1.85611   1.46514   1.30882   1.75247
   25  H   0.84047
   26  H   0.82671
   27  H   0.86672
   28  H   0.83994
   29  H   0.84290
   30  H   0.85005
   31  H   0.84318
   32  H   0.86380
   33  H   0.87027
   34  H   0.85314
   35  H   0.87943
   36  H   0.85695
   37  H   0.84730
   38  H   0.82403
   39  C   1.11940   0.76434   0.74833   0.73405
   40  O   1.87484   1.44771   1.73931   1.41462
   41  C   1.06099   1.13412   1.15748   1.16253
   42  H   0.81263
   43  H   0.81876
   44  H   0.78456
   45  C   1.11003   0.78179   0.76053   0.69968
   46  O   1.87768   1.28875   1.80046   1.52193
   47  C   1.06463   1.15662   1.13902   1.19103
   48  H   0.81341
   49  H   0.79299
   50  H   0.83274

 **********************
 *                    *
 * JOB ENDED NORMALLY *
 *                    *
 **********************



 TOTAL JOB TIME:            13.21 SECONDS

 == MOPAC DONE ==
