 *******************************************************************************
 ** Site#: 6986         For non-commercial use only           Version 21.128L **
 *******************************************************************************
 ** Cite this program as: MOPAC2016, Version: 21.128L, James J. P. Stewart,   **
 ** Stewart Computational Chemistry, web: HTTP://OpenMOPAC.net. Days left: 354**
 *******************************************************************************
 **                                                                           **
 **                                MOPAC2016                                  **
 **                                                                           **
 *******************************************************************************

                              PM7 CALCULATION RESULTS

 *******************************************************************************
 *  CALCULATION DONE:                                Wed May 19 16:17:30 2021  *
 *  PM7        - The PM7 Hamiltonian to be used
 *  SINGLET    - SPIN STATE DEFINED AS A SINGLET
 *
 *
 *
 *                 CHARGE ON SYSTEM = 0
 *
 *
 *
 *  XYZ        - CARTESIAN COORDINATE SYSTEM TO BE USED
 *  T=         - A TIME OF 172800.0 SECONDS REQUESTED
 *  DUMP=N     - RESTART FILE WRITTEN EVERY 7200.0 SECONDS REQUESTED
 *  GNORM      - EXIT WHEN GRADIENT NORM DROPS BELOW 0.010
 *  AUX        - OUTPUT AUXILIARY INFORMATION
 *******************************************************************************
PM7 XYZ AUX GNORM=0.01 CHARGE=0 Singlet

 Mopac file generated by Gabedit
   ATOM   CHEMICAL          X               Y               Z
  NUMBER   SYMBOL      (ANGSTROMS)     (ANGSTROMS)     (ANGSTROMS)
 
     1       C         -0.02195800  *   1.02950000  *   0.38137500  *
     2       O         -0.52195800  *   0.21950000  *   1.47437500  *
     3       C         -0.01495800  *  -1.14250000  *   1.56337500  *
     4       O          1.36304200  *  -1.10450000  *   1.75037500  *
     5       C         -0.34295800  *  -1.91050000  *   0.26037500  *
     6       O          0.25704200  *  -3.18350000  *   0.29337500  *
     7       C          0.14504200  *  -1.13050000  *  -0.98362500  *
     8       O          1.54904200  *  -1.13050000  *  -0.98362500  *
     9       C         -0.33695800  *   0.34250000  *  -0.98362500  *
    10       O          0.27804200  *   1.03250000  *  -2.04562500  *
    11       C         -0.64395800  *   2.44850000  *   0.52337500  *
    12       O         -0.06295800  *   3.35850000  *  -0.38462500  *
    13       H          1.07404200  *   1.13350000  *   0.48737500  *
    14       H         -0.48195800  *  -1.64250000  *   2.42737500  *
    15       H          1.58702500  *  -4.02413300  *   3.07154400  *
    16       H         -1.44195800  *  -2.03850000  *   0.18837500  *
    17       H          0.26749500  *  -5.08317400  *  -1.28970500  *
    18       H         -0.20595800  *  -1.63750000  *  -1.90462500  *
    19       H          2.16254200  *  -2.13134300  *  -2.62923000  *
    20       H         -1.43295800  *   0.35550000  *  -1.14062500  *
    21       H          0.24735100  *   1.67903900  *  -3.50065200  *
    22       H         -0.48295800  *   2.81450000  *   1.54337500  *
    23       H         -1.72595800  *   2.40550000  *   0.36837500  *
    24       H         -0.58341400  *   5.25138900  *  -0.12889200  *
 


          CARTESIAN COORDINATES 

    NO.       ATOM           X           Y           Z

     1         C         -0.0220      1.0295      0.3814
     2         O         -0.5220      0.2195      1.4744
     3         C         -0.0150     -1.1425      1.5634
     4         O          1.3630     -1.1045      1.7504
     5         C         -0.3430     -1.9105      0.2604
     6         O          0.2570     -3.1835      0.2934
     7         C          0.1450     -1.1305     -0.9836
     8         O          1.5490     -1.1305     -0.9836
     9         C         -0.3370      0.3425     -0.9836
    10         O          0.2780      1.0325     -2.0456
    11         C         -0.6440      2.4485      0.5234
    12         O         -0.0630      3.3585     -0.3846
    13         H          1.0740      1.1335      0.4874
    14         H         -0.4820     -1.6425      2.4274
    15         H          1.5870     -4.0241      3.0715
    16         H         -1.4420     -2.0385      0.1884
    17         H          0.2675     -5.0832     -1.2897
    18         H         -0.2060     -1.6375     -1.9046
    19         H          2.1625     -2.1313     -2.6292
    20         H         -1.4330      0.3555     -1.1406
    21         H          0.2474      1.6790     -3.5007
    22         H         -0.4830      2.8145      1.5434
    23         H         -1.7260      2.4055      0.3684
    24         H         -0.5834      5.2514     -0.1289

 General Reference for PM7:
 "Optimization of Parameters for Semiempirical Methods VI: More Modifications to the 
 NDDO Approximations and Re-optimization of Parameters", J. J. P. Stewart, J. Mol. Mod., 1:32, 19 (2013)
 https://link.springer.com/article/10.1007/s00894-012-1667-x

           Empirical Formula: C6 H12 O6  =    24 atoms



      MOLECULAR POINT GROUP   :   C1  


 SINGLET STATE CALCULATION


      RHF CALCULATION, NO. OF DOUBLY OCCUPIED LEVELS = 36


          Geometry optimization using EF

          DIAGONAL MATRIX USED AS START HESSIAN

 CYCLE:     1 TIME:   0.039 TIME LEFT:  2.00D  GRAD.:   342.507 HEAT:  433.1383
 CYCLE:     2 TIME:   0.012 TIME LEFT:  2.00D  GRAD.:   301.185 HEAT:  371.9012
 CYCLE:     3 TIME:   0.012 TIME LEFT:  2.00D  GRAD.:   380.961 HEAT:  260.7941
 CYCLE:     4 TIME:   0.004 TIME LEFT:  2.00D  GRAD.:   408.345 HEAT:  130.2787
 CYCLE:     5 TIME:   0.008 TIME LEFT:  2.00D  GRAD.:   385.368 HEAT:  90.17500


 ALL CONVERGERS ARE NOW FORCED ON
 SHIFT=10, PULAY ON, CAMP-KING ON
 AND ITERATION COUNTER RESET


 CYCLE:     6 TIME:   0.664 TIME LEFT:  2.00D  GRAD.:   515.866 HEAT:  80.58998
 CYCLE:     7 TIME:   0.008 TIME LEFT:  2.00D  GRAD.:   318.906 HEAT:  58.96305


 ALL CONVERGERS ARE NOW FORCED ON
 SHIFT=10, PULAY ON, CAMP-KING ON
 AND ITERATION COUNTER RESET


 CYCLE:     8 TIME:   0.762 TIME LEFT:  2.00D  GRAD.:   172.977 HEAT:  21.84486


 ALL CONVERGERS ARE NOW FORCED ON
 SHIFT=10, PULAY ON, CAMP-KING ON
 AND ITERATION COUNTER RESET


 CYCLE:     9 TIME:   0.762 TIME LEFT:  2.00D  GRAD.:   103.584 HEAT:  10.25950


 ALL CONVERGERS ARE NOW FORCED ON
 SHIFT=10, PULAY ON, CAMP-KING ON
 AND ITERATION COUNTER RESET




 ALL CONVERGERS ARE NOW FORCED ON
 SHIFT=10, PULAY ON, CAMP-KING ON
 AND ITERATION COUNTER RESET


 CYCLE:    10 TIME:   1.430 TIME LEFT:  2.00D  GRAD.:   110.936 HEAT:  8.927081


 ALL CONVERGERS ARE NOW FORCED ON
 SHIFT=10, PULAY ON, CAMP-KING ON
 AND ITERATION COUNTER RESET


 CYCLE:    11 TIME:   0.656 TIME LEFT:  2.00D  GRAD.:    73.993 HEAT:  5.051349


 ALL CONVERGERS ARE NOW FORCED ON
 SHIFT=10, PULAY ON, CAMP-KING ON
 AND ITERATION COUNTER RESET


 CYCLE:    12 TIME:   0.672 TIME LEFT:  2.00D  GRAD.:   129.452 HEAT:  3.696001


 ALL CONVERGERS ARE NOW FORCED ON
 SHIFT=10, PULAY ON, CAMP-KING ON
 AND ITERATION COUNTER RESET


 CYCLE:    13 TIME:   0.684 TIME LEFT:  2.00D  GRAD.:   119.907 HEAT: -2.138751


 ALL CONVERGERS ARE NOW FORCED ON
 SHIFT=10, PULAY ON, CAMP-KING ON
 AND ITERATION COUNTER RESET


 CYCLE:    14 TIME:   0.676 TIME LEFT:  2.00D  GRAD.:   215.855 HEAT: -7.360895
 CYCLE:    15 TIME:   0.008 TIME LEFT:  2.00D  GRAD.:   235.459 HEAT: -31.38169


 ALL CONVERGERS ARE NOW FORCED ON
 SHIFT=10, PULAY ON, CAMP-KING ON
 AND ITERATION COUNTER RESET


 CYCLE:    16 TIME:   0.691 TIME LEFT:  2.00D  GRAD.:   319.602 HEAT: -36.26014
 CYCLE:    17 TIME:   0.008 TIME LEFT:  2.00D  GRAD.:   187.837 HEAT: -52.34001


 ALL CONVERGERS ARE NOW FORCED ON
 SHIFT=10, PULAY ON, CAMP-KING ON
 AND ITERATION COUNTER RESET


 CYCLE:    18 TIME:   0.730 TIME LEFT:  2.00D  GRAD.:   153.315 HEAT: -63.40935
 CYCLE:    19 TIME:   0.004 TIME LEFT:  2.00D  GRAD.:   119.754 HEAT: -67.82171
 CYCLE:    20 TIME:   0.008 TIME LEFT:  2.00D  GRAD.:    88.276 HEAT: -72.91982


 ALL CONVERGERS ARE NOW FORCED ON
 SHIFT=10, PULAY ON, CAMP-KING ON
 AND ITERATION COUNTER RESET


 CYCLE:    21 TIME:   0.738 TIME LEFT:  2.00D  GRAD.:    62.182 HEAT: -75.51225


 ALL CONVERGERS ARE NOW FORCED ON
 SHIFT=10, PULAY ON, CAMP-KING ON
 AND ITERATION COUNTER RESET


 CYCLE:    22 TIME:   0.770 TIME LEFT:  2.00D  GRAD.:   114.612 HEAT: -75.79922
 CYCLE:    23 TIME:   0.008 TIME LEFT:  2.00D  GRAD.:    96.947 HEAT: -77.34376


 ALL CONVERGERS ARE NOW FORCED ON
 SHIFT=10, PULAY ON, CAMP-KING ON
 AND ITERATION COUNTER RESET


 CYCLE:    24 TIME:   0.758 TIME LEFT:  2.00D  GRAD.:   102.067 HEAT: -78.68093
 CYCLE:    25 TIME:   0.004 TIME LEFT:  2.00D  GRAD.:    80.130 HEAT: -80.90824
 CYCLE:    26 TIME:   0.008 TIME LEFT:  2.00D  GRAD.:   113.649 HEAT: -81.75304
 CYCLE:    27 TIME:   0.008 TIME LEFT:  2.00D  GRAD.:    89.484 HEAT: -85.59851
 CYCLE:    28 TIME:   0.008 TIME LEFT:  2.00D  GRAD.:   129.071 HEAT: -87.79081
 CYCLE:    29 TIME:   0.004 TIME LEFT:  2.00D  GRAD.:    81.816 HEAT: -96.77272
 CYCLE:    30 TIME:   0.008 TIME LEFT:  2.00D  GRAD.:   196.003 HEAT: -115.9935
 CYCLE:    31 TIME:   0.004 TIME LEFT:  2.00D  GRAD.:   303.741 HEAT: -132.6693
 CYCLE:    32 TIME:   0.012 TIME LEFT:  2.00D  GRAD.:   259.724 HEAT: -145.7621
 CYCLE:    33 TIME:   0.016 TIME LEFT:  2.00D  GRAD.:   186.805 HEAT: -164.3257
 CYCLE:    34 TIME:   0.004 TIME LEFT:  2.00D  GRAD.:   170.461 HEAT: -168.1317
 CYCLE:    35 TIME:   0.004 TIME LEFT:  2.00D  GRAD.:   158.504 HEAT: -171.1429
 CYCLE:    36 TIME:   0.008 TIME LEFT:  2.00D  GRAD.:   135.440 HEAT: -173.9594
 CYCLE:    37 TIME:   0.012 TIME LEFT:  2.00D  GRAD.:    60.627 HEAT: -180.7628
 CYCLE:    38 TIME:   0.012 TIME LEFT:  2.00D  GRAD.:    34.123 HEAT: -182.1338
 CYCLE:    39 TIME:   0.004 TIME LEFT:  2.00D  GRAD.:    25.937 HEAT: -183.5971
 CYCLE:    40 TIME:   0.004 TIME LEFT:  2.00D  GRAD.:    33.648 HEAT: -185.4151
 CYCLE:    41 TIME:   0.008 TIME LEFT:  2.00D  GRAD.:    74.619 HEAT: -186.3066
 CYCLE:    42 TIME:   0.004 TIME LEFT:  2.00D  GRAD.:    63.421 HEAT: -187.7044
 CYCLE:    43 TIME:   0.012 TIME LEFT:  2.00D  GRAD.:    58.785 HEAT: -188.6412
 CYCLE:    44 TIME:   0.004 TIME LEFT:  2.00D  GRAD.:    41.062 HEAT: -190.2766
 CYCLE:    45 TIME:   0.012 TIME LEFT:  2.00D  GRAD.:    53.691 HEAT: -190.3375
 CYCLE:    46 TIME:   0.004 TIME LEFT:  2.00D  GRAD.:    21.282 HEAT: -191.6369
 CYCLE:    47 TIME:   0.016 TIME LEFT:  2.00D  GRAD.:    21.912 HEAT: -191.8560
 CYCLE:    48 TIME:   0.004 TIME LEFT:  2.00D  GRAD.:    12.567 HEAT: -192.2686
 CYCLE:    49 TIME:   0.004 TIME LEFT:  2.00D  GRAD.:    21.567 HEAT: -192.7297
 CYCLE:    50 TIME:   0.008 TIME LEFT:  2.00D  GRAD.:    25.366 HEAT: -193.3811
 CYCLE:    51 TIME:   0.008 TIME LEFT:  2.00D  GRAD.:    33.915 HEAT: -194.0038
 CYCLE:    52 TIME:   0.004 TIME LEFT:  2.00D  GRAD.:    31.233 HEAT: -194.8589
 CYCLE:    53 TIME:   0.008 TIME LEFT:  2.00D  GRAD.:    27.087 HEAT: -195.5931
 CYCLE:    54 TIME:   0.004 TIME LEFT:  2.00D  GRAD.:    32.738 HEAT: -196.0178
 CYCLE:    55 TIME:   0.004 TIME LEFT:  2.00D  GRAD.:    40.406 HEAT: -196.0860
 CYCLE:    56 TIME:   0.012 TIME LEFT:  2.00D  GRAD.:    25.820 HEAT: -196.7150
 CYCLE:    57 TIME:   0.008 TIME LEFT:  2.00D  GRAD.:    25.778 HEAT: -196.9359
 CYCLE:    58 TIME:   0.004 TIME LEFT:  2.00D  GRAD.:    18.329 HEAT: -197.4243
 CYCLE:    59 TIME:   0.004 TIME LEFT:  2.00D  GRAD.:    20.143 HEAT: -197.8821
 CYCLE:    60 TIME:   0.008 TIME LEFT:  2.00D  GRAD.:    21.404 HEAT: -198.5707
 CYCLE:    61 TIME:   0.004 TIME LEFT:  2.00D  GRAD.:    28.102 HEAT: -199.4027
 CYCLE:    62 TIME:   0.004 TIME LEFT:  2.00D  GRAD.:    28.236 HEAT: -200.1167
 CYCLE:    63 TIME:   0.012 TIME LEFT:  2.00D  GRAD.:    29.305 HEAT: -200.8375
 CYCLE:    64 TIME:   0.008 TIME LEFT:  2.00D  GRAD.:    38.862 HEAT: -201.1015
 CYCLE:    65 TIME:   0.008 TIME LEFT:  2.00D  GRAD.:    37.394 HEAT: -201.8947
 CYCLE:    66 TIME:   0.008 TIME LEFT:  2.00D  GRAD.:    42.145 HEAT: -202.2008
 CYCLE:    67 TIME:   0.004 TIME LEFT:  2.00D  GRAD.:    22.344 HEAT: -203.1029
 CYCLE:    68 TIME:   0.004 TIME LEFT:  2.00D  GRAD.:    24.441 HEAT: -203.5275
 CYCLE:    69 TIME:   0.008 TIME LEFT:  2.00D  GRAD.:    37.367 HEAT: -203.9952
 CYCLE:    70 TIME:   0.012 TIME LEFT:  2.00D  GRAD.:    39.811 HEAT: -204.2687
 CYCLE:    71 TIME:   0.004 TIME LEFT:  2.00D  GRAD.:    20.462 HEAT: -205.3171
 CYCLE:    72 TIME:   0.008 TIME LEFT:  2.00D  GRAD.:    37.473 HEAT: -205.5173
 CYCLE:    73 TIME:   0.004 TIME LEFT:  2.00D  GRAD.:    19.169 HEAT: -206.0901
 CYCLE:    74 TIME:   0.008 TIME LEFT:  2.00D  GRAD.:    24.823 HEAT: -206.5781
 CYCLE:    75 TIME:   0.004 TIME LEFT:  2.00D  GRAD.:    19.329 HEAT: -207.1387
 CYCLE:    76 TIME:   0.016 TIME LEFT:  2.00D  GRAD.:    23.590 HEAT: -207.6521
 CYCLE:    77 TIME:   0.008 TIME LEFT:  2.00D  GRAD.:    25.536 HEAT: -208.3967
 CYCLE:    78 TIME:   0.004 TIME LEFT:  2.00D  GRAD.:    38.851 HEAT: -209.0567
 CYCLE:    79 TIME:   0.008 TIME LEFT:  2.00D  GRAD.:    40.974 HEAT: -210.7745
 CYCLE:    80 TIME:   0.004 TIME LEFT:  2.00D  GRAD.:    40.412 HEAT: -212.3320
 CYCLE:    81 TIME:   0.008 TIME LEFT:  2.00D  GRAD.:    42.535 HEAT: -215.0757
 CYCLE:    82 TIME:   0.008 TIME LEFT:  2.00D  GRAD.:   126.205 HEAT: -219.5451
 CYCLE:    83 TIME:   0.004 TIME LEFT:  2.00D  GRAD.:   191.325 HEAT: -220.9634
 CYCLE:    84 TIME:   0.012 TIME LEFT:  2.00D  GRAD.:   126.317 HEAT: -230.2442
 CYCLE:    85 TIME:   0.008 TIME LEFT:  2.00D  GRAD.:   102.737 HEAT: -247.3305
 CYCLE:    86 TIME:   0.004 TIME LEFT:  2.00D  GRAD.:   166.785 HEAT: -253.1419
 CYCLE:    87 TIME:   0.016 TIME LEFT:  2.00D  GRAD.:    92.229 HEAT: -262.8718
 CYCLE:    88 TIME:   0.008 TIME LEFT:  2.00D  GRAD.:    52.683 HEAT: -265.7756
 CYCLE:    89 TIME:   0.004 TIME LEFT:  2.00D  GRAD.:    36.291 HEAT: -268.6836
 CYCLE:    90 TIME:   0.008 TIME LEFT:  2.00D  GRAD.:    41.528 HEAT: -269.5716
 CYCLE:    91 TIME:   0.004 TIME LEFT:  2.00D  GRAD.:    19.330 HEAT: -270.7817
 CYCLE:    92 TIME:   0.008 TIME LEFT:  2.00D  GRAD.:    13.791 HEAT: -271.2614
 CYCLE:    93 TIME:   0.004 TIME LEFT:  2.00D  GRAD.:    17.743 HEAT: -271.5861
 CYCLE:    94 TIME:   0.008 TIME LEFT:  2.00D  GRAD.:    12.985 HEAT: -271.8417
 CYCLE:    95 TIME:   0.004 TIME LEFT:  2.00D  GRAD.:    10.319 HEAT: -272.0439
 CYCLE:    96 TIME:   0.008 TIME LEFT:  2.00D  GRAD.:    10.281 HEAT: -272.3668
 CYCLE:    97 TIME:   0.004 TIME LEFT:  2.00D  GRAD.:    14.613 HEAT: -272.7338
 CYCLE:    98 TIME:   0.008 TIME LEFT:  2.00D  GRAD.:    41.345 HEAT: -272.7815
 CYCLE:    99 TIME:   0.004 TIME LEFT:  2.00D  GRAD.:    26.679 HEAT: -273.4004
 CYCLE:   100 TIME:   0.008 TIME LEFT:  2.00D  GRAD.:    19.842 HEAT: -273.7122
 CYCLE:   101 TIME:   0.004 TIME LEFT:  2.00D  GRAD.:    15.416 HEAT: -274.3707
 CYCLE:   102 TIME:   0.008 TIME LEFT:  2.00D  GRAD.:    32.747 HEAT: -274.6542
 CYCLE:   103 TIME:   0.004 TIME LEFT:  2.00D  GRAD.:    15.697 HEAT: -275.2107
 CYCLE:   104 TIME:   0.004 TIME LEFT:  2.00D  GRAD.:    13.513 HEAT: -275.6062
 CYCLE:   105 TIME:   0.008 TIME LEFT:  2.00D  GRAD.:    20.059 HEAT: -276.4883
 CYCLE:   106 TIME:   0.016 TIME LEFT:  2.00D  GRAD.:    14.916 HEAT: -276.7905
 CYCLE:   107 TIME:   0.016 TIME LEFT:  2.00D  GRAD.:    17.172 HEAT: -277.0610
 CYCLE:   108 TIME:   0.004 TIME LEFT:  2.00D  GRAD.:    16.910 HEAT: -277.3323
 CYCLE:   109 TIME:   0.004 TIME LEFT:  2.00D  GRAD.:    10.598 HEAT: -277.5712
 CYCLE:   110 TIME:   0.008 TIME LEFT:  2.00D  GRAD.:     8.389 HEAT: -277.7924
 CYCLE:   111 TIME:   0.008 TIME LEFT:  2.00D  GRAD.:     7.609 HEAT: -277.9669
 CYCLE:   112 TIME:   0.004 TIME LEFT:  2.00D  GRAD.:     7.450 HEAT: -278.0768
 CYCLE:   113 TIME:   0.004 TIME LEFT:  2.00D  GRAD.:     7.266 HEAT: -278.1916
 CYCLE:   114 TIME:   0.008 TIME LEFT:  2.00D  GRAD.:     6.155 HEAT: -278.2764
 CYCLE:   115 TIME:   0.004 TIME LEFT:  2.00D  GRAD.:     4.319 HEAT: -278.3232
 CYCLE:   116 TIME:   0.008 TIME LEFT:  2.00D  GRAD.:     3.412 HEAT: -278.3526
 CYCLE:   117 TIME:   0.004 TIME LEFT:  2.00D  GRAD.:     2.459 HEAT: -278.3705
 CYCLE:   118 TIME:   0.004 TIME LEFT:  2.00D  GRAD.:     1.796 HEAT: -278.3886
 CYCLE:   119 TIME:   0.008 TIME LEFT:  2.00D  GRAD.:     1.483 HEAT: -278.3938
 CYCLE:   120 TIME:   0.004 TIME LEFT:  2.00D  GRAD.:     1.278 HEAT: -278.3988
 CYCLE:   121 TIME:   0.008 TIME LEFT:  2.00D  GRAD.:     1.402 HEAT: -278.4051
 CYCLE:   122 TIME:   0.004 TIME LEFT:  2.00D  GRAD.:     1.298 HEAT: -278.4084
 CYCLE:   123 TIME:   0.004 TIME LEFT:  2.00D  GRAD.:     1.142 HEAT: -278.4119
 CYCLE:   124 TIME:   0.008 TIME LEFT:  2.00D  GRAD.:     0.826 HEAT: -278.4145
 CYCLE:   125 TIME:   0.008 TIME LEFT:  2.00D  GRAD.:     0.751 HEAT: -278.4166
 CYCLE:   126 TIME:   0.004 TIME LEFT:  2.00D  GRAD.:     0.999 HEAT: -278.4182
 CYCLE:   127 TIME:   0.008 TIME LEFT:  2.00D  GRAD.:     0.995 HEAT: -278.4197
 CYCLE:   128 TIME:   0.004 TIME LEFT:  2.00D  GRAD.:     1.163 HEAT: -278.4218
 CYCLE:   129 TIME:   0.008 TIME LEFT:  2.00D  GRAD.:     0.945 HEAT: -278.4238
 CYCLE:   130 TIME:   0.004 TIME LEFT:  2.00D  GRAD.:     1.598 HEAT: -278.4267
 CYCLE:   131 TIME:   0.008 TIME LEFT:  2.00D  GRAD.:     1.038 HEAT: -278.4286
 CYCLE:   132 TIME:   0.004 TIME LEFT:  2.00D  GRAD.:     0.737 HEAT: -278.4307
 CYCLE:   133 TIME:   0.008 TIME LEFT:  2.00D  GRAD.:     0.569 HEAT: -278.4319
 CYCLE:   134 TIME:   0.008 TIME LEFT:  2.00D  GRAD.:     0.591 HEAT: -278.4329
 CYCLE:   135 TIME:   0.004 TIME LEFT:  2.00D  GRAD.:     0.319 HEAT: -278.4337
 CYCLE:   136 TIME:   0.004 TIME LEFT:  2.00D  GRAD.:     0.247 HEAT: -278.4340
 CYCLE:   137 TIME:   0.008 TIME LEFT:  2.00D  GRAD.:     0.292 HEAT: -278.4342
 CYCLE:   138 TIME:   0.004 TIME LEFT:  2.00D  GRAD.:     0.173 HEAT: -278.4345
 CYCLE:   139 TIME:   0.004 TIME LEFT:  2.00D  GRAD.:     0.144 HEAT: -278.4346
 CYCLE:   140 TIME:   0.004 TIME LEFT:  2.00D  GRAD.:     0.146 HEAT: -278.4346
 CYCLE:   141 TIME:   0.008 TIME LEFT:  2.00D  GRAD.:     0.174 HEAT: -278.4347
 CYCLE:   142 TIME:   0.004 TIME LEFT:  2.00D  GRAD.:     0.147 HEAT: -278.4347
 CYCLE:   143 TIME:   0.004 TIME LEFT:  2.00D  GRAD.:     0.271 HEAT: -278.4343
 CYCLE:   144 TIME:   0.008 TIME LEFT:  2.00D  GRAD.:     0.103 HEAT: -278.4348
 CYCLE:   145 TIME:   0.004 TIME LEFT:  2.00D  GRAD.:     0.100 HEAT: -278.4349
 CYCLE:   146 TIME:   0.008 TIME LEFT:  2.00D  GRAD.:     0.092 HEAT: -278.4349
 CYCLE:   147 TIME:   0.004 TIME LEFT:  2.00D  GRAD.:     0.152 HEAT: -278.4350
 CYCLE:   148 TIME:   0.008 TIME LEFT:  2.00D  GRAD.:     0.115 HEAT: -278.4351
 CYCLE:   149 TIME:   0.004 TIME LEFT:  2.00D  GRAD.:     0.184 HEAT: -278.4352
 CYCLE:   150 TIME:   0.008 TIME LEFT:  2.00D  GRAD.:     0.113 HEAT: -278.4352
 CYCLE:   151 TIME:   0.004 TIME LEFT:  2.00D  GRAD.:     0.152 HEAT: -278.4353
 CYCLE:   152 TIME:   0.004 TIME LEFT:  2.00D  GRAD.:     0.061 HEAT: -278.4353
 CYCLE:   153 TIME:   0.008 TIME LEFT:  2.00D  GRAD.:     0.102 HEAT: -278.4354
 CYCLE:   154 TIME:   0.004 TIME LEFT:  2.00D  GRAD.:     0.075 HEAT: -278.4354
 CYCLE:   155 TIME:   0.004 TIME LEFT:  2.00D  GRAD.:     0.377 HEAT: -278.4354
 CYCLE:   156 TIME:   0.008 TIME LEFT:  2.00D  GRAD.:     0.027 HEAT: -278.4355
 CYCLE:   157 TIME:   0.004 TIME LEFT:  2.00D  GRAD.:     0.027 HEAT: -278.4355
 CYCLE:   158 TIME:   0.008 TIME LEFT:  2.00D  GRAD.:     0.020 HEAT: -278.4355
 CYCLE:   159 TIME:   0.004 TIME LEFT:  2.00D  GRAD.:     0.032 HEAT: -278.4355
 CYCLE:   160 TIME:   0.004 TIME LEFT:  2.00D  GRAD.:     0.023 HEAT: -278.4355
 CYCLE:   161 TIME:   0.008 TIME LEFT:  2.00D  GRAD.:     0.041 HEAT: -278.4355
 CYCLE:   162 TIME:   0.004 TIME LEFT:  2.00D  GRAD.:     0.018 HEAT: -278.4355
 CYCLE:   163 TIME:   0.008 TIME LEFT:  2.00D  GRAD.:     0.022 HEAT: -278.4355
 CYCLE:   164 TIME:   0.004 TIME LEFT:  2.00D  GRAD.:     0.017 HEAT: -278.4355
 CYCLE:   165 TIME:   0.008 TIME LEFT:  2.00D  GRAD.:     0.030 HEAT: -278.4355
 CYCLE:   166 TIME:   0.004 TIME LEFT:  2.00D  GRAD.:     0.024 HEAT: -278.4355
 CYCLE:   167 TIME:   0.004 TIME LEFT:  2.00D  GRAD.:     0.025 HEAT: -278.4355
 CYCLE:   168 TIME:   0.008 TIME LEFT:  2.00D  GRAD.:     0.021 HEAT: -278.4355
 CYCLE:   169 TIME:   0.004 TIME LEFT:  2.00D  GRAD.:     0.025 HEAT: -278.4355
 CYCLE:   170 TIME:   0.008 TIME LEFT:  2.00D  GRAD.:     0.024 HEAT: -278.4355


 HEAT OF FORMATION IS ESSENTIALLY STATIONARY

 -------------------------------------------------------------------------------
 PM7 XYZ AUX GNORM=0.01 CHARGE=0 Singlet

 Mopac file generated by Gabedit


     GEOMETRY OPTIMISED USING EIGENVECTOR FOLLOWING (EF).     
     SCF FIELD WAS ACHIEVED                                   


                              PM7 CALCULATION
                                                       MOPAC2016 (Version: 21.128L)
                                                       Wed May 19 16:17:41 2021
                                                       No. of days remaining = 354




          FINAL HEAT OF FORMATION =       -278.43547 KCAL/MOL =   -1164.97402 KJ/MOL


          TOTAL ENERGY            =      -2671.36939 EV
          ELECTRONIC ENERGY       =     -14458.31297 EV  POINT GROUP:     C1  
          CORE-CORE REPULSION     =      11786.94358 EV
          COSMO AREA              =        180.32 SQUARE ANGSTROMS
          COSMO VOLUME            =        189.68 CUBIC ANGSTROMS

          GRADIENT NORM           =          0.02422 = 0.00494 PER ATOM
          IONIZATION POTENTIAL    =         10.142607 EV
          HOMO LUMO ENERGIES (EV) =        -10.143  1.096
          NO. OF FILLED LEVELS    =         36
          MOLECULAR WEIGHT        =        180.1572

          MOLECULAR DIMENSIONS (Angstroms)

            Atom       Atom       Distance
            H    24    H    15     7.40789
            H    14    H    19     4.67797
            H    20    O     4     3.47292


          SCF CALCULATIONS        =        196
 
          WALL-CLOCK TIME         =         11.102 SECONDS
          COMPUTATION TIME        =  1 MINUTE AND  6.230 SECONDS




   ATOM   CHEMICAL          X               Y               Z
  NUMBER   SYMBOL      (ANGSTROMS)     (ANGSTROMS)     (ANGSTROMS)
 
     1       C          0.06429689  *   0.91851198  *   0.33341474  *
     2       O         -0.42490590  *   0.19805862  *   1.44678432  *
     3       C          0.03955237  *  -1.13448842  *   1.54165230  *
     4       O          1.41914569  *  -1.18981273  *   1.65830849  *
     5       C         -0.45952221  *  -1.92105439  *   0.29908031  *
     6       O         -0.01038486  *  -3.24326054  *   0.35616414  *
     7       C          0.00662055  *  -1.23064554  *  -0.99881372  *
     8       O          1.42332411  *  -1.32013529  *  -1.01878101  *
     9       C         -0.42201070  *   0.25058309  *  -0.97205968  *
    10       O          0.22636523  *   0.83886851  *  -2.07992192  *
    11       C         -0.52999909  *   2.32780600  *   0.50424873  *
    12       O          0.03889843  *   3.07039454  *  -0.56780295  *
    13       H          1.17783592  *   0.96073944  *   0.36745194  *
    14       H         -0.36119556  *  -1.47420364  *   2.51969943  *
    15       H          0.97703295  *  -3.27047794  *   0.31776723  *
    16       H         -1.56917497  *  -2.02361067  *   0.31700390  *
    17       H          1.85377862  *  -1.11778745  *   0.77094604  *
    18       H         -0.36210875  *  -1.75692118  *  -1.90639495  *
    19       H          1.77566991  *  -0.66351577  *  -1.66913318  *
    20       H         -1.51808598  *   0.35853081  *  -1.11413358  *
    21       H          0.28753665  *   1.81606174  *  -1.93838680  *
    22       H         -0.21585942  *   2.78167805  *   1.46208343  *
    23       H         -1.62953476  *   2.33368157  *   0.42769652  *
    24       H         -0.38184847  *   3.94800520  *  -0.64332768  *

                             CARTESIAN COORDINATES

   1    C        0.064296894     0.918511980     0.333414742
   2    O       -0.424905902     0.198058618     1.446784322
   3    C        0.039552369    -1.134488419     1.541652296
   4    O        1.419145690    -1.189812732     1.658308491
   5    C       -0.459522212    -1.921054394     0.299080312
   6    O       -0.010384863    -3.243260540     0.356164139
   7    C        0.006620547    -1.230645541    -0.998813721
   8    O        1.423324106    -1.320135287    -1.018781006
   9    C       -0.422010701     0.250583086    -0.972059680
  10    O        0.226365230     0.838868507    -2.079921925
  11    C       -0.529999095     2.327805997     0.504248730
  12    O        0.038898435     3.070394544    -0.567802947
  13    H        1.177835916     0.960739441     0.367451942
  14    H       -0.361195561    -1.474203643     2.519699430
  15    H        0.977032948    -3.270477944     0.317767235
  16    H       -1.569174965    -2.023610675     0.317003897
  17    H        1.853778625    -1.117787452     0.770946039
  18    H       -0.362108747    -1.756921180    -1.906394954
  19    H        1.775669906    -0.663515770    -1.669133181
  20    H       -1.518085983     0.358530808    -1.114133578
  21    H        0.287536653     1.816061740    -1.938386802
  22    H       -0.215859418     2.781678047     1.462083428
  23    H       -1.629534760     2.333681573     0.427696517
  24    H       -0.381848466     3.948005200    -0.643327676


           Empirical Formula: C6 H12 O6  =    24 atoms



      MOLECULAR POINT GROUP   :   C1  


                  EIGENVALUES  
 -31.96272 -30.56433 -29.85783 -29.68292 -28.90651 -28.82641 -26.73029 -26.64321
 -23.97689 -22.45435 -21.54420 -20.22804 -18.84206 -18.63953 -18.20954 -17.36797
 -17.05983 -16.27297 -16.23863 -15.51162 -15.38560 -15.04891 -14.56141 -14.32961
 -14.00065 -13.62864 -13.35491 -12.85210 -12.53216 -12.23658 -11.66154 -11.58655
 -11.39740 -11.06736 -10.97806 -10.14261   1.09647   1.85920   2.20959   2.48619
   2.75453   2.87167   2.93693   3.16990   3.40644   3.43801   3.55349   4.37321
   4.80649   4.89901   4.97633   5.17034   5.21533   5.28854   5.33671   5.45008
   5.50029   5.97880   6.03492   6.20599


              NET ATOMIC CHARGES AND DIPOLE CONTRIBUTIONS

  ATOM NO.   TYPE          CHARGE      No. of ELECS.   s-Pop       p-Pop       
    1          C           0.047851        3.9521     1.10120     2.85095
    2          O          -0.455768        6.4558     1.87539     4.58038
    3          C           0.323522        3.6765     1.12174     2.55474
    4          O          -0.563318        6.5633     1.84532     4.71800
    5          C           0.016919        3.9831     1.10734     2.87574
    6          O          -0.511263        6.5113     1.85206     4.65920
    7          C           0.074146        3.9259     1.10602     2.81984
    8          O          -0.588229        6.5882     1.84954     4.73869
    9          C           0.044154        3.9558     1.10421     2.85164
   10          O          -0.574590        6.5746     1.85219     4.72240
   11          C          -0.017471        4.0175     1.09242     2.92505
   12          O          -0.581714        6.5817     1.84392     4.73779
   13          H           0.158286        0.8417     0.84171
   14          H           0.165018        0.8350     0.83498
   15          H           0.335428        0.6646     0.66457
   16          H           0.162494        0.8375     0.83751
   17          H           0.350799        0.6492     0.64920
   18          H           0.154235        0.8458     0.84577
   19          H           0.358834        0.6412     0.64117
   20          H           0.138923        0.8611     0.86108
   21          H           0.358758        0.6412     0.64124
   22          H           0.142111        0.8579     0.85789
   23          H           0.127341        0.8727     0.87266
   24          H           0.333535        0.6665     0.66647
 DIPOLE           X         Y         Z       TOTAL
 POINT-CHG.    -3.042     2.702    -0.240     4.076
 HYBRID         1.079     0.879    -0.743     1.578
 SUM           -1.962     3.581    -0.983     4.200


          ATOMIC ORBITAL ELECTRON POPULATIONS

     Atom    s        px        py        pz   
    1  C   1.10120   1.08227   0.91021   0.85846
    2  O   1.87539   1.72764   1.35718   1.49556
    3  C   1.12174   0.76685   0.76899   1.01890
    4  O   1.84532   1.30628   1.92939   1.48233
    5  C   1.10734   1.06964   0.82784   0.97826
    6  O   1.85206   1.39417   1.30176   1.96328
    7  C   1.10602   0.77496   0.98497   1.05991
    8  O   1.84954   1.30752   1.70207   1.72910
    9  C   1.10421   1.03653   0.95368   0.86142
   10  O   1.85219   1.83510   1.40725   1.48004
   11  C   1.09242   1.05813   0.93433   0.93258
   12  O   1.84392   1.70461   1.43625   1.59693
   13  H   0.84171
   14  H   0.83498
   15  H   0.66457
   16  H   0.83751
   17  H   0.64920
   18  H   0.84577
   19  H   0.64117
   20  H   0.86108
   21  H   0.64124
   22  H   0.85789
   23  H   0.87266
   24  H   0.66647

 **********************
 *                    *
 * JOB ENDED NORMALLY *
 *                    *
 **********************



 TOTAL JOB TIME:            11.11 SECONDS

 == MOPAC DONE ==
